 Entering Gaussian System, Link 0=/opt/gaussian/g16/sse4/g16/g16
 Initial command:
 /opt/gaussian/g16/sse4/g16/l1.exe "/scratch/1549343/Gau-15492.inp" -scrdir="/scratch/1549343/"
 Entering Link 1 = /opt/gaussian/g16/sse4/g16/l1.exe PID=     15497.
  
 Copyright (c) 1988,1990,1992,1993,1995,1998,2003,2009,2016,
            Gaussian, Inc.  All Rights Reserved.
  
 This is part of the Gaussian(R) 16 program.  It is based on
 the Gaussian(R) 09 system (copyright 2009, Gaussian, Inc.),
 the Gaussian(R) 03 system (copyright 2003, Gaussian, Inc.),
 the Gaussian(R) 98 system (copyright 1998, Gaussian, Inc.),
 the Gaussian(R) 94 system (copyright 1995, Gaussian, Inc.),
 the Gaussian 92(TM) system (copyright 1992, Gaussian, Inc.),
 the Gaussian 90(TM) system (copyright 1990, Gaussian, Inc.),
 the Gaussian 88(TM) system (copyright 1988, Gaussian, Inc.),
 the Gaussian 86(TM) system (copyright 1986, Carnegie Mellon
 University), and the Gaussian 82(TM) system (copyright 1983,
 Carnegie Mellon University). Gaussian is a federally registered
 trademark of Gaussian, Inc.
  
 This software contains proprietary and confidential information,
 including trade secrets, belonging to Gaussian, Inc.
  
 This software is provided under written license and may be
 used, copied, transmitted, or stored only in accord with that
 written license.
  
 The following legend is applicable only to US Government
 contracts under FAR:
  
                    RESTRICTED RIGHTS LEGEND
  
 Use, reproduction and disclosure by the US Government is
 subject to restrictions as set forth in subparagraphs (a)
 and (c) of the Commercial Computer Software - Restricted
 Rights clause in FAR 52.227-19.
  
 Gaussian, Inc.
 340 Quinnipiac St., Bldg. 40, Wallingford CT 06492
  
  
 ---------------------------------------------------------------
 Warning -- This program may not be used in any manner that
 competes with the business of Gaussian, Inc. or will provide
 assistance to any competitor of Gaussian, Inc.  The licensee
 of this program is prohibited from giving any competitor of
 Gaussian, Inc. access to this program.  By using this program,
 the user acknowledges that Gaussian, Inc. is engaged in the
 business of creating and licensing software in the field of
 computational chemistry and represents and warrants to the
 licensee that it is not a competitor of Gaussian, Inc. and that
 it will not use this program in any manner prohibited above.
 ---------------------------------------------------------------
  

 Cite this work as:
 Gaussian 16, Revision A.03,
 M. J. Frisch, G. W. Trucks, H. B. Schlegel, G. E. Scuseria, 
 M. A. Robb, J. R. Cheeseman, G. Scalmani, V. Barone, 
 G. A. Petersson, H. Nakatsuji, X. Li, M. Caricato, A. V. Marenich, 
 J. Bloino, B. G. Janesko, R. Gomperts, B. Mennucci, H. P. Hratchian, 
 J. V. Ortiz, A. F. Izmaylov, J. L. Sonnenberg, D. Williams-Young, 
 F. Ding, F. Lipparini, F. Egidi, J. Goings, B. Peng, A. Petrone, 
 T. Henderson, D. Ranasinghe, V. G. Zakrzewski, J. Gao, N. Rega, 
 G. Zheng, W. Liang, M. Hada, M. Ehara, K. Toyota, R. Fukuda, 
 J. Hasegawa, M. Ishida, T. Nakajima, Y. Honda, O. Kitao, H. Nakai, 
 T. Vreven, K. Throssell, J. A. Montgomery, Jr., J. E. Peralta, 
 F. Ogliaro, M. J. Bearpark, J. J. Heyd, E. N. Brothers, K. N. Kudin, 
 V. N. Staroverov, T. A. Keith, R. Kobayashi, J. Normand, 
 K. Raghavachari, A. P. Rendell, J. C. Burant, S. S. Iyengar, 
 J. Tomasi, M. Cossi, J. M. Millam, M. Klene, C. Adamo, R. Cammi, 
 J. W. Ochterski, R. L. Martin, K. Morokuma, O. Farkas, 
 J. B. Foresman, and D. J. Fox, Gaussian, Inc., Wallingford CT, 2016.
 
 ******************************************
 Gaussian 16:  ES64L-G16RevA.03 25-Dec-2016
                16-Dec-2021 
 ******************************************
 %chk=CCSD_Methane_gaus.chk
 %nprocshared=4
 Will use up to    4 processors via shared memory.
 %mem=4GB
 ------------------------------------------------
 #p opt freq ccsd/cc-pvdz geom=connectivity polar
 ------------------------------------------------
 1/18=20,19=15,38=101,57=2/1,3;
 2/9=110,12=2,17=6,18=5,40=1/2;
 3/5=16,11=9,25=1,30=1,71=1/1,2,3;
 4//1;
 5/5=2,38=5,98=1/2;
 8/6=4,9=120000,10=1/1,4;
 9/5=7,15=1/13;
 11/28=-8,29=200,42=3/11;
 10/5=6/2;
 6/7=2,8=2,9=2,10=2/1;
 7/12=7/1,2,3,16;
 1/18=20,19=15,38=100/3(2);
 2/9=110/2;
 99//99;
 2/9=110/2;
 3/5=16,11=9,14=-3,25=1,30=1,71=1/1,2,3;
 4/5=5,16=3,69=1/1;
 5/5=2,38=5,98=1/2;
 8/6=4,9=120000,10=1/1,4;
 9/5=7,15=1/13;
 11/28=-8,29=200,42=3/11;
 10/5=6/2;
 7/12=7/1,2,3,16;
 1/18=20,19=15,38=100/3(-9);
 2/9=110/2;
 6/7=2,8=2,9=2,10=2/1;
 99//99;
 Leave Link    1 at Thu Dec 16 11:32:07 2021, MaxMem=   536870912 cpu:               0.1 elap:               0.0
 (Enter /opt/gaussian/g16/sse4/g16/l101.exe)
 -----------
 Methane.xyz
 -----------
 Symbolic Z-matrix:
 Charge =  0 Multiplicity = 1
 C                     1.01825   0.09315   0.03147 
 H                     2.11045   0.09315   0.03147 
 H                     0.65419  -0.6028    0.79043 
 H                     0.65418  -0.21615  -0.95071 
 H                     0.65418   1.0984    0.2547 
 
 ITRead=  0  0  0  0  0
 MicOpt= -1 -1 -1 -1 -1
 NAtoms=      5 NQM=        5 NQMF=       0 NMMI=      0 NMMIF=      0
                NMic=       0 NMicF=      0.
                    Isotopes and Nuclear Properties:
 (Nuclear quadrupole moments (NQMom) in fm**2, nuclear magnetic moments (NMagM)
  in nuclear magnetons)

  Atom         1           2           3           4           5
 IAtWgt=          12           1           1           1           1
 AtmWgt=  12.0000000   1.0078250   1.0078250   1.0078250   1.0078250
 NucSpn=           0           1           1           1           1
 AtZEff=  -0.0000000  -0.0000000  -0.0000000  -0.0000000  -0.0000000
 NQMom=    0.0000000   0.0000000   0.0000000   0.0000000   0.0000000
 NMagM=    0.0000000   2.7928460   2.7928460   2.7928460   2.7928460
 AtZNuc=   6.0000000   1.0000000   1.0000000   1.0000000   1.0000000
 Leave Link  101 at Thu Dec 16 11:32:09 2021, MaxMem=   536870912 cpu:               0.8 elap:               0.2
 (Enter /opt/gaussian/g16/sse4/g16/l103.exe)

 GradGradGradGradGradGradGradGradGradGradGradGradGradGradGradGradGradGrad
 Berny optimization.
 Initialization pass.
                           ----------------------------
                           !    Initial Parameters    !
                           ! (Angstroms and Degrees)  !
 --------------------------                            --------------------------
 ! Name  Definition              Value          Derivative Info.                !
 --------------------------------------------------------------------------------
 ! R1    R(1,2)                  1.0922         estimate D2E/DX2                !
 ! R2    R(1,3)                  1.0922         estimate D2E/DX2                !
 ! R3    R(1,4)                  1.0922         estimate D2E/DX2                !
 ! R4    R(1,5)                  1.0922         estimate D2E/DX2                !
 ! A1    A(2,1,3)              109.4708         estimate D2E/DX2                !
 ! A2    A(2,1,4)              109.4715         estimate D2E/DX2                !
 ! A3    A(2,1,5)              109.4714         estimate D2E/DX2                !
 ! A4    A(3,1,4)              109.4713         estimate D2E/DX2                !
 ! A5    A(3,1,5)              109.4713         estimate D2E/DX2                !
 ! A6    A(4,1,5)              109.471          estimate D2E/DX2                !
 ! D1    D(2,1,4,3)            119.9997         estimate D2E/DX2                !
 ! D2    D(2,1,5,3)           -119.9996         estimate D2E/DX2                !
 ! D3    D(2,1,5,4)            120.0003         estimate D2E/DX2                !
 ! D4    D(3,1,5,4)           -120.0001         estimate D2E/DX2                !
 --------------------------------------------------------------------------------
 Trust Radius=3.00D-01 FncErr=1.00D-07 GrdErr=1.00D-07 EigMax=2.50D+02 EigMin=1.00D-04
 Number of steps in this run=     24 maximum allowed number of steps=    100.
 GradGradGradGradGradGradGradGradGradGradGradGradGradGradGradGradGradGrad

 Leave Link  103 at Thu Dec 16 11:32:09 2021, MaxMem=   536870912 cpu:               0.0 elap:               0.0
 (Enter /opt/gaussian/g16/sse4/g16/l202.exe)
                          Input orientation:                          
 ---------------------------------------------------------------------
 Center     Atomic      Atomic             Coordinates (Angstroms)
 Number     Number       Type             X           Y           Z
 ---------------------------------------------------------------------
      1          6           0        1.018250    0.093150    0.031470
      2          1           0        2.110450    0.093150    0.031470
      3          1           0        0.654190   -0.602800    0.790430
      4          1           0        0.654180   -0.216150   -0.950710
      5          1           0        0.654180    1.098400    0.254700
 ---------------------------------------------------------------------
                    Distance matrix (angstroms):
                    1          2          3          4          5
     1  C    0.000000
     2  H    1.092200   0.000000
     3  H    1.092203   1.783553   0.000000
     4  H    1.092195   1.783554   1.783555   0.000000
     5  H    1.092202   1.783559   1.783561   1.783551   0.000000
 This structure is nearly, but not quite of a higher symmetry.
 Consider Symm=Loose if the higher symmetry is desired.
 Stoichiometry    CH4
 Framework group  C1[X(CH4)]
 Deg. of freedom     9
 Full point group                 C1      NOp   1
 Largest Abelian subgroup         C1      NOp   1
 Largest concise Abelian subgroup C1      NOp   1
                         Standard orientation:                         
 ---------------------------------------------------------------------
 Center     Atomic      Atomic             Coordinates (Angstroms)
 Number     Number       Type             X           Y           Z
 ---------------------------------------------------------------------
      1          6           0        0.000001   -0.000000   -0.000001
      2          1           0        0.238897    1.049174    0.187251
      3          1           0       -0.103162   -0.525400    0.951954
      4          1           0        0.802074   -0.457527   -0.583300
      5          1           0       -0.937812   -0.066247   -0.555900
 ---------------------------------------------------------------------
 Rotational constants (GHZ):         157.6379695         157.6370300         157.6367913
 Leave Link  202 at Thu Dec 16 11:32:10 2021, MaxMem=   536870912 cpu:               0.0 elap:               0.0
 (Enter /opt/gaussian/g16/sse4/g16/l301.exe)
 Standard basis: CC-pVDZ (5D, 7F)
 Ernie: Thresh=  0.10000D-02 Tol=  0.10000D-05 Strict=F.
 Ernie:  2 primitive shells out of 42 were deleted.
 There are    35 symmetry adapted cartesian basis functions of A   symmetry.
 There are    34 symmetry adapted basis functions of A   symmetry.
    34 basis functions,    61 primitive gaussians,    35 cartesian basis functions
     5 alpha electrons        5 beta electrons
       nuclear repulsion energy        13.4083251507 Hartrees.
 IExCor=    0 DFT=F Ex=HF Corr=None ExCW=0 ScaHFX=  1.000000
 ScaDFX=  1.000000  1.000000  1.000000  1.000000 ScalE2=  1.000000  1.000000
 IRadAn=      5 IRanWt=     -1 IRanGd=            0 ICorTp=0 IEmpDi=  4
 NAtoms=    5 NActive=    5 NUniq=    5 SFac= 1.00D+00 NAtFMM=   60 NAOKFM=F Big=F
 Integral buffers will be    131072 words long.
 Raffenetti 1 integral format.
 Two-electron integral symmetry is turned on.
 Leave Link  301 at Thu Dec 16 11:32:10 2021, MaxMem=   536870912 cpu:               0.1 elap:               0.0
 (Enter /opt/gaussian/g16/sse4/g16/l302.exe)
 NPDir=0 NMtPBC=     1 NCelOv=     1 NCel=       1 NClECP=     1 NCelD=      1
         NCelK=      1 NCelE2=     1 NClLst=     1 CellRange=     0.0.
 One-electron integrals computed using PRISM.
 One-electron integral symmetry used in STVInt
 NBasis=    34 RedAO= T EigKep=  2.35D-02  NBF=    34
 NBsUse=    34 1.00D-06 EigRej= -1.00D+00 NBFU=    34
 Leave Link  302 at Thu Dec 16 11:32:10 2021, MaxMem=   536870912 cpu:               0.4 elap:               0.1
 (Enter /opt/gaussian/g16/sse4/g16/l303.exe)
 DipDrv:  MaxL=1.
 Leave Link  303 at Thu Dec 16 11:32:10 2021, MaxMem=   536870912 cpu:               0.1 elap:               0.0
 (Enter /opt/gaussian/g16/sse4/g16/l401.exe)
 ExpMin= 1.22D-01 ExpMax= 6.67D+03 ExpMxC= 2.28D+02 IAcc=3 IRadAn=         5 AccDes= 0.00D+00
 Harris functional with IExCor=  205 and IRadAn=       5 diagonalized for initial guess.
 HarFok:  IExCor=  205 AccDes= 0.00D+00 IRadAn=         5 IDoV= 1 UseB2=F ITyADJ=14
 ICtDFT=  3500011 ScaDFX=  1.000000  1.000000  1.000000  1.000000
 FoFCou: FMM=F IPFlag=           0 FMFlag=      100000 FMFlg1=           0
         NFxFlg=           0 DoJE=T BraDBF=F KetDBF=T FulRan=T
         wScrn=  0.000000 ICntrl=       500 IOpCl=  0 I1Cent=   200000004 NGrid=           0
         NMat0=    1 NMatS0=      1 NMatT0=    0 NMatD0=    1 NMtDS0=    0 NMtDT0=    0
 Petite list used in FoFCou.
 Harris En= -40.3680941994179    
 JPrj=0 DoOrth=F DoCkMO=F.
 Leave Link  401 at Thu Dec 16 11:32:11 2021, MaxMem=   536870912 cpu:               1.0 elap:               0.3
 (Enter /opt/gaussian/g16/sse4/g16/l502.exe)
 Keep R1 ints in memory in canonical form, NReq=1015658.
 FoFCou: FMM=F IPFlag=           0 FMFlag=           0 FMFlg1=           0
         NFxFlg=           0 DoJE=F BraDBF=F KetDBF=F FulRan=T
         wScrn=  0.000000 ICntrl=       600 IOpCl=  0 I1Cent=           0 NGrid=           0
         NMat0=    1 NMatS0=    595 NMatT0=    0 NMatD0=    1 NMtDS0=    0 NMtDT0=    0
 Symmetry not used in FoFCou.
 Two-electron integral symmetry not used.
 Closed shell SCF:
 Using DIIS extrapolation, IDIIS=  1040.
 NGot=   536870912 LenX=   536690353 LenY=   536688687
 Requested convergence on RMS density matrix=1.00D-08 within 128 cycles.
 Requested convergence on MAX density matrix=1.00D-06.
 Requested convergence on             energy=1.00D-06.
 No special actions if energy rises.

 Cycle   1  Pass 1  IDiag  1:
 E= -40.0778413913798    
 DIIS: error= 5.64D-02 at cycle   1 NSaved=   1.
 NSaved= 1 IEnMin= 1 EnMin= -40.0778413913798     IErMin= 1 ErrMin= 5.64D-02
 ErrMax= 5.64D-02  0.00D+00 EMaxC= 1.00D-01 BMatC= 1.19D-01 BMatP= 1.19D-01
 IDIUse=3 WtCom= 4.36D-01 WtEn= 5.64D-01
 Coeff-Com:  0.100D+01
 Coeff-En:   0.100D+01
 Coeff:      0.100D+01
 Gap=     0.655 Goal=   None    Shift=    0.000
 GapD=    0.655 DampG=2.000 DampE=0.500 DampFc=1.0000 IDamp=-1.
 RMSDP=9.96D-03 MaxDP=1.28D-01              OVMax= 1.44D-01

 Cycle   2  Pass 1  IDiag  1:
 E= -40.1804358076513     Delta-E=       -0.102594416271 Rises=F Damp=F
 DIIS: error= 2.60D-02 at cycle   2 NSaved=   2.
 NSaved= 2 IEnMin= 2 EnMin= -40.1804358076513     IErMin= 2 ErrMin= 2.60D-02
 ErrMax= 2.60D-02  0.00D+00 EMaxC= 1.00D-01 BMatC= 1.87D-02 BMatP= 1.19D-01
 IDIUse=3 WtCom= 7.40D-01 WtEn= 2.60D-01
 Coeff-Com:  0.266D+00 0.734D+00
 Coeff-En:   0.000D+00 0.100D+01
 Coeff:      0.197D+00 0.803D+00
 Gap=     0.744 Goal=   None    Shift=    0.000
 RMSDP=2.96D-03 MaxDP=3.39D-02 DE=-1.03D-01 OVMax= 4.22D-02

 Cycle   3  Pass 1  IDiag  1:
 E= -40.1983582389029     Delta-E=       -0.017922431252 Rises=F Damp=F
 DIIS: error= 2.65D-03 at cycle   3 NSaved=   3.
 NSaved= 3 IEnMin= 3 EnMin= -40.1983582389029     IErMin= 3 ErrMin= 2.65D-03
 ErrMax= 2.65D-03  0.00D+00 EMaxC= 1.00D-01 BMatC= 2.68D-04 BMatP= 1.87D-02
 IDIUse=3 WtCom= 9.73D-01 WtEn= 2.65D-02
 Coeff-Com: -0.347D-01 0.294D-01 0.101D+01
 Coeff-En:   0.000D+00 0.000D+00 0.100D+01
 Coeff:     -0.337D-01 0.287D-01 0.101D+01
 Gap=     0.735 Goal=   None    Shift=    0.000
 RMSDP=4.38D-04 MaxDP=4.65D-03 DE=-1.79D-02 OVMax= 6.22D-03

 Cycle   4  Pass 1  IDiag  1:
 E= -40.1986993685709     Delta-E=       -0.000341129668 Rises=F Damp=F
 DIIS: error= 3.35D-04 at cycle   4 NSaved=   4.
 NSaved= 4 IEnMin= 4 EnMin= -40.1986993685709     IErMin= 4 ErrMin= 3.35D-04
 ErrMax= 3.35D-04  0.00D+00 EMaxC= 1.00D-01 BMatC= 3.24D-06 BMatP= 2.68D-04
 IDIUse=3 WtCom= 9.97D-01 WtEn= 3.35D-03
 Coeff-Com:  0.944D-02-0.228D-01-0.351D+00 0.136D+01
 Coeff-En:   0.000D+00 0.000D+00 0.000D+00 0.100D+01
 Coeff:      0.941D-02-0.227D-01-0.350D+00 0.136D+01
 Gap=     0.735 Goal=   None    Shift=    0.000
 RMSDP=1.03D-04 MaxDP=6.33D-04 DE=-3.41D-04 OVMax= 1.11D-03

 Cycle   5  Pass 1  IDiag  1:
 E= -40.1987064856355     Delta-E=       -0.000007117065 Rises=F Damp=F
 DIIS: error= 1.87D-05 at cycle   5 NSaved=   5.
 NSaved= 5 IEnMin= 5 EnMin= -40.1987064856355     IErMin= 5 ErrMin= 1.87D-05
 ErrMax= 1.87D-05  0.00D+00 EMaxC= 1.00D-01 BMatC= 1.98D-08 BMatP= 3.24D-06
 IDIUse=1 WtCom= 1.00D+00 WtEn= 0.00D+00
 Coeff-Com: -0.195D-02 0.495D-02 0.773D-01-0.346D+00 0.127D+01
 Coeff:     -0.195D-02 0.495D-02 0.773D-01-0.346D+00 0.127D+01
 Gap=     0.735 Goal=   None    Shift=    0.000
 RMSDP=1.30D-05 MaxDP=7.21D-05 DE=-7.12D-06 OVMax= 9.53D-05

 Cycle   6  Pass 1  IDiag  1:
 E= -40.1987065303564     Delta-E=       -0.000000044721 Rises=F Damp=F
 DIIS: error= 8.42D-07 at cycle   6 NSaved=   6.
 NSaved= 6 IEnMin= 6 EnMin= -40.1987065303564     IErMin= 6 ErrMin= 8.42D-07
 ErrMax= 8.42D-07  0.00D+00 EMaxC= 1.00D-01 BMatC= 2.39D-11 BMatP= 1.98D-08
 IDIUse=1 WtCom= 1.00D+00 WtEn= 0.00D+00
 Coeff-Com:  0.116D-03-0.266D-03-0.440D-02 0.199D-01-0.840D-01 0.107D+01
 Coeff:      0.116D-03-0.266D-03-0.440D-02 0.199D-01-0.840D-01 0.107D+01
 Gap=     0.735 Goal=   None    Shift=    0.000
 RMSDP=5.03D-07 MaxDP=2.95D-06 DE=-4.47D-08 OVMax= 2.39D-06

 Cycle   7  Pass 1  IDiag  1:
 E= -40.1987065303978     Delta-E=       -0.000000000041 Rises=F Damp=F
 DIIS: error= 1.40D-07 at cycle   7 NSaved=   7.
 NSaved= 7 IEnMin= 7 EnMin= -40.1987065303978     IErMin= 7 ErrMin= 1.40D-07
 ErrMax= 1.40D-07  0.00D+00 EMaxC= 1.00D-01 BMatC= 5.19D-13 BMatP= 2.39D-11
 IDIUse=1 WtCom= 1.00D+00 WtEn= 0.00D+00
 Coeff-Com:  0.356D-05-0.148D-04-0.165D-03 0.729D-03-0.212D-02-0.134D+00
 Coeff-Com:  0.114D+01
 Coeff:      0.356D-05-0.148D-04-0.165D-03 0.729D-03-0.212D-02-0.134D+00
 Coeff:      0.114D+01
 Gap=     0.735 Goal=   None    Shift=    0.000
 RMSDP=8.11D-08 MaxDP=4.66D-07 DE=-4.14D-11 OVMax= 3.82D-07

 Cycle   8  Pass 1  IDiag  1:
 E= -40.1987065303987     Delta-E=       -0.000000000001 Rises=F Damp=F
 DIIS: error= 1.41D-08 at cycle   8 NSaved=   8.
 NSaved= 8 IEnMin= 8 EnMin= -40.1987065303987     IErMin= 8 ErrMin= 1.41D-08
 ErrMax= 1.41D-08  0.00D+00 EMaxC= 1.00D-01 BMatC= 3.82D-15 BMatP= 5.19D-13
 IDIUse=1 WtCom= 1.00D+00 WtEn= 0.00D+00
 Coeff-Com:  0.654D-07 0.674D-06 0.320D-05-0.197D-04 0.558D-04 0.202D-01
 Coeff-Com: -0.197D+00 0.118D+01
 Coeff:      0.654D-07 0.674D-06 0.320D-05-0.197D-04 0.558D-04 0.202D-01
 Coeff:     -0.197D+00 0.118D+01
 Gap=     0.735 Goal=   None    Shift=    0.000
 RMSDP=4.47D-09 MaxDP=2.68D-08 DE=-9.09D-13 OVMax= 2.48D-08

 SCF Done:  E(RHF) =  -40.1987065304     A.U. after    8 cycles
            NFock=  8  Conv=0.45D-08     -V/T= 2.0027
 KE= 4.009101372117D+01 PE=-1.197363535547D+02 EE= 2.603830815244D+01
 Leave Link  502 at Thu Dec 16 11:32:12 2021, MaxMem=   536870912 cpu:               0.7 elap:               0.2
 (Enter /opt/gaussian/g16/sse4/g16/l801.exe)
 Windowed orbitals will be sorted by symmetry type.
 ExpMin= 1.22D-01 ExpMax= 6.67D+03 ExpMxC= 2.28D+02 IAcc=3 IRadAn=         5 AccDes= 0.00D+00
 HarFok:  IExCor=  205 AccDes= 0.00D+00 IRadAn=         5 IDoV=-2 UseB2=F ITyADJ=14
 ICtDFT= 12500011 ScaDFX=  1.000000  1.000000  1.000000  1.000000
 Largest valence mixing into a core orbital is  1.02D-04
 Largest core mixing into a valence orbital is  3.33D-05
 Range of M.O.s used for correlation:     2    34
 NBasis=    34 NAE=     5 NBE=     5 NFC=     1 NFV=     0
 NROrb=     33 NOA=     4 NOB=     4 NVA=    29 NVB=    29
 Leave Link  801 at Thu Dec 16 11:32:12 2021, MaxMem=   536870912 cpu:               0.3 elap:               0.1
 (Enter /opt/gaussian/g16/sse4/g16/l804.exe)
 Closed-shell transformation, MDV=   536870912 ITran=4 ISComp=1.
 Unit  1 TFree=         39184 TCopy=        242831.
 Semi-Direct transformation.
 ModeAB=           2 MOrb=             4 LenV=     536671785
 LASXX=        63705 LTotXX=       63705 LenRXX=       63705
 LTotAB=       69526 MaxLAS=       83160 LenRXY=       83160
 NonZer=      127410 LenScr=      785920 LnRSAI=           0
 LnScr1=           0 LExtra=           0 Total=       932785
 MaxDsk=          -1 SrtSym=           F ITran=            4
 DoSDTr:  NPSUse=  4
 JobTyp=0 Pass  1:  I=   1 to   4.
 (rs|ai) integrals will be sorted in core.
 Complete sort for first half transformation.
 First half transformation complete.
 Complete sort for second half transformation.
 Second half transformation complete.
 SymMOI:  orbitals are not symmetric.
 Spin components of T(2) and E(2):
     alpha-alpha T2 =       0.5317962088D-02 E2=     -0.1513255952D-01
     alpha-beta  T2 =       0.4379652460D-01 E2=     -0.1310633176D+00
     beta-beta   T2 =       0.5317962088D-02 E2=     -0.1513255952D-01
 ANorm=    0.1026855612D+01
 E2 =    -0.1613284366D+00 EUMP2 =    -0.40360034967044D+02
 Leave Link  804 at Thu Dec 16 11:32:14 2021, MaxMem=   536870912 cpu:               0.3 elap:               0.8
 (Enter /opt/gaussian/g16/sse4/g16/l913.exe)
 CIDS:  MDV=   536870912.
 Frozen-core window:  NFC=   1 NFV=   0.
 IFCWin=0 IBDFC=1 NFBD=     0     0 NFCmp=     0     0 NFFFC=     0     0
 Using DD3R+UMP44R for 1st iteration.
 Using DD4RQ for 2nd and later iterations.
 Keep R2 and R3 ints in memory in canonical form, NReq=1195732.
 FoFCou: FMM=F IPFlag=           0 FMFlag=           0 FMFlg1=           0
         NFxFlg=           0 DoJE=F BraDBF=F KetDBF=F FulRan=T
         wScrn=  0.000000 ICntrl=       600 IOpCl=  0 I1Cent=           0 NGrid=           0
         NMat0=    1 NMatS0=    595 NMatT0=    0 NMatD0=    1 NMtDS0=    0 NMtDT0=    0
 Symmetry not used in FoFCou.
 Two-electron integral symmetry not used.
 CIDS: In Core Option IDoMem=           1.
 Coupled Cluster theory with single and double substitutions
 ===========================================================
 Iterations=  50 Convergence= 0.100D-07
 Produce multiple copies of IABC intergrals
 Iteration Nr.   1
 **********************
 DD1Dir will call FoFMem   1 times, MxPair=        20
 NAB=    10 NAA=     0 NBB=     0.
 MP4(R+Q)=  0.26110819D-02
 Maximum subspace dimension=  5
 A-vector RMS=  2.8216364D-03 Max=  4.3967300D-03 conv= 1.00D-06.
 RLE energy=       -0.1811514312
 E3=       -0.20289462D-01        EUMP3=      -0.40380324429D+02
 E4(DQ)=   -0.22670333D-02        UMP4(DQ)=   -0.40382591462D+02
 E4(SDQ)=  -0.28173258D-02        UMP4(SDQ)=  -0.40383141755D+02
 VARIATIONAL ENERGIES WITH THE FIRST-ORDER WAVEFUNCTION:
 DE(Corr)= -0.17898225     E(Corr)=     -40.377688780    
 NORM(A)=   0.10344415D+01
 Iteration Nr.   2
 **********************
 DD1Dir will call FoFMem   1 times, MxPair=        20
 NAB=    10 NAA=     0 NBB=     0.
 A-vector RMS=  5.1668117D-04 Max=  1.2550357D-03 conv= 1.00D-06.
 RLE energy=       -0.1845930616
 DE(Corr)= -0.18363176     E(CORR)=     -40.382338293     Delta=-4.65D-03
 NORM(A)=   0.10362776D+01
 Iteration Nr.   3
 **********************
 DD1Dir will call FoFMem   1 times, MxPair=        20
 NAB=    10 NAA=     0 NBB=     0.
 A-vector RMS=  1.7759389D-04 Max=  2.8345684D-04 conv= 1.00D-06.
 RLE energy=       -0.1848328901
 DE(Corr)= -0.18464107     E(CORR)=     -40.383347599     Delta=-1.01D-03
 NORM(A)=   0.10365747D+01
 Iteration Nr.   4
 **********************
 DD1Dir will call FoFMem   1 times, MxPair=        20
 NAB=    10 NAA=     0 NBB=     0.
 A-vector RMS=  2.8753701D-05 Max=  6.2753891D-05 conv= 1.00D-06.
 RLE energy=       -0.1848664641
 DE(Corr)= -0.18484682     E(CORR)=     -40.383553350     Delta=-2.06D-04
 NORM(A)=   0.10366113D+01
 Iteration Nr.   5
 **********************
 DD1Dir will call FoFMem   1 times, MxPair=        20
 NAB=    10 NAA=     0 NBB=     0.
 A-vector RMS=  6.8284888D-06 Max=  1.5092952D-05 conv= 1.00D-06.
 RLE energy=       -0.1848603553
 DE(Corr)= -0.18486146     E(CORR)=     -40.383567995     Delta=-1.46D-05
 NORM(A)=   0.10366096D+01
 Iteration Nr.   6
 **********************
 DD1Dir will call FoFMem   1 times, MxPair=        20
 NAB=    10 NAA=     0 NBB=     0.
 A-vector RMS=  1.4303525D-06 Max=  3.4148430D-06 conv= 1.00D-06.
 RLE energy=       -0.1848613438
 DE(Corr)= -0.18486119     E(CORR)=     -40.383567718     Delta= 2.77D-07
 NORM(A)=   0.10366098D+01
 Iteration Nr.   7
 **********************
 DD1Dir will call FoFMem   1 times, MxPair=        20
 NAB=    10 NAA=     0 NBB=     0.
 A-vector RMS=  2.9980836D-07 Max=  1.0789908D-06 conv= 1.00D-06.
 RLE energy=       -0.1848613609
 DE(Corr)= -0.18486130     E(CORR)=     -40.383567833     Delta=-1.15D-07
 NORM(A)=   0.10366098D+01
 Iteration Nr.   8
 **********************
 DD1Dir will call FoFMem   1 times, MxPair=        20
 NAB=    10 NAA=     0 NBB=     0.
 A-vector RMS=  6.3226291D-08 Max=  2.4484931D-07 conv= 1.00D-06.
 RLE energy=       -0.1848613191
 DE(Corr)= -0.18486132     E(CORR)=     -40.383567851     Delta=-1.77D-08
 NORM(A)=   0.10366098D+01
 Iteration Nr.   9
 **********************
 DD1Dir will call FoFMem   1 times, MxPair=        20
 NAB=    10 NAA=     0 NBB=     0.
 A-vector RMS=  1.8815780D-08 Max=  7.7853624D-08 conv= 1.00D-06.
 RLE energy=       -0.1848613080
 DE(Corr)= -0.18486131     E(CORR)=     -40.383567841     Delta= 9.57D-09
 NORM(A)=   0.10366098D+01
 CI/CC converged in    9 iterations to DelEn= 9.57D-09 Conv= 1.00D-08 ErrA1= 1.88D-08 Conv= 1.00D-06
 Wavefunction amplitudes converged. E(Corr)=     -40.383567841    
 Largest amplitude= 3.08D-02

 Z-amplitude iterations

 Iteration Nr.   1
 **********************
 DD1Dir will call FoFMem   1 times, MxPair=        20
 NAB=    10 NAA=     0 NBB=     0.
 A-vector RMS=  9.8429052D-04 Max=  1.9348930D-03 conv= 1.00D-06.
 RLE energy=       -0.1848600604
 DE(Z)= -0.18101347     E(Z)=     -40.379719997     Delta= 3.85D-03
 NORM(A)=   0.10366093D+01
 Iteration Nr.   2
 **********************
 DD1Dir will call FoFMem   1 times, MxPair=        20
 NAB=    10 NAA=     0 NBB=     0.
 A-vector RMS=  9.8402662D-04 Max=  1.9343653D-03 conv= 1.00D-06.
 RLE energy=       -0.1848570102
 DE(Z)= -0.18101328     E(Z)=     -40.379719808     Delta= 1.88D-07
 NORM(A)=   0.10366080D+01
 Iteration Nr.   3
 **********************
 DD1Dir will call FoFMem   1 times, MxPair=        20
 NAB=    10 NAA=     0 NBB=     0.
 A-vector RMS=  9.8338883D-04 Max=  1.9331160D-03 conv= 1.00D-06.
 RLE energy=       -0.1848443921
 DE(Z)= -0.18101284     E(Z)=     -40.379719369     Delta= 4.40D-07
 NORM(A)=   0.10366028D+01
 Iteration Nr.   4
 **********************
 DD1Dir will call FoFMem   1 times, MxPair=        20
 NAB=    10 NAA=     0 NBB=     0.
 A-vector RMS=  9.8059468D-04 Max=  1.9276079D-03 conv= 1.00D-06.
 RLE energy=       -0.1847787421
 DE(Z)= -0.18101099     E(Z)=     -40.379717523     Delta= 1.85D-06
 NORM(A)=   0.10365755D+01
 Iteration Nr.   5
 **********************
 DD1Dir will call FoFMem   1 times, MxPair=        20
 NAB=    10 NAA=     0 NBB=     0.
 A-vector RMS=  9.6621661D-04 Max=  1.8993365D-03 conv= 1.00D-06.
 RLE energy=       -0.1803571672
 DE(Z)= -0.18100141     E(Z)=     -40.379707940     Delta= 9.58D-06
 NORM(A)=   0.10347943D+01
 Iteration Nr.   6
 **********************
 DD1Dir will call FoFMem   1 times, MxPair=        20
 NAB=    10 NAA=     0 NBB=     0.
 A-vector RMS=  2.0393312D-07 Max=  4.0314750D-07 conv= 1.00D-06.
 RLE energy=       -0.1803572526
 DE(Z)= -0.18035726     E(Z)=     -40.379063789     Delta= 6.44D-04
 NORM(A)=   0.10347944D+01
 Iteration Nr.   7
 **********************
 DD1Dir will call FoFMem   1 times, MxPair=        20
 NAB=    10 NAA=     0 NBB=     0.
 A-vector RMS=  7.7791845D-08 Max=  1.8480074D-07 conv= 1.00D-06.
 RLE energy=       -0.1803573078
 DE(Z)= -0.18035729     E(Z)=     -40.379063820     Delta=-3.10D-08
 NORM(A)=   0.10347945D+01
 Iteration Nr.   8
 **********************
 DD1Dir will call FoFMem   1 times, MxPair=        20
 NAB=    10 NAA=     0 NBB=     0.
 A-vector RMS=  6.2358079D-09 Max=  1.4752835D-08 conv= 1.00D-06.
 RLE energy=       -0.1803573114
 DE(Z)= -0.18035731     E(Z)=     -40.379063839     Delta=-1.92D-08
 NORM(A)=   0.10347945D+01
 Iteration Nr.   9
 **********************
 DD1Dir will call FoFMem   1 times, MxPair=        20
 NAB=    10 NAA=     0 NBB=     0.
 A-vector RMS=  1.4171802D-09 Max=  2.8447530D-09 conv= 1.00D-06.
 RLE energy=       -0.1803573109
 DE(Z)= -0.18035731     E(Z)=     -40.379063841     Delta=-1.87D-09
 NORM(A)=   0.10347945D+01
 CI/CC converged in    9 iterations to DelEn=-1.87D-09 Conv= 1.00D-08 ErrA1= 1.42D-09 Conv= 1.00D-06
 Z-amplitudes converged.
 Discarding MO integrals.
 Leave Link  913 at Thu Dec 16 11:32:16 2021, MaxMem=   536870912 cpu:               4.9 elap:               1.7
 (Enter /opt/gaussian/g16/sse4/g16/l1111.exe)
 Unit  1 TFree=        163969 TCopy=         73773.
 Selected functions:
 Compute CCSD 2PDM.
 Form Post-SCF non-separable gradient here.
 IO1PDM=    0 IOW=    0 IO2PDM=    0.
 MDV=     536870912.
 Frozen-core window:  NFC=   1 NFV=   0.
 Leave Link 1111 at Thu Dec 16 11:32:19 2021, MaxMem=   536870912 cpu:               5.2 elap:               1.9
 (Enter /opt/gaussian/g16/sse4/g16/l1002.exe)
 Minotr:  Closed shell wavefunction.
          Computing CCSD/QCISD derivatives.
          Using Z-Vector for PSCF gradient.
          Skipping F1 and S1 gradient terms here.
          IDoAtm=11111
          Frozen-core window.
          Direct CPHF calculation.
          Differentiating once with respect to electric field.
                with respect to dipole field.
          Differentiating once with respect to nuclear coordinates.
          Requested convergence is 1.0D-10 RMS, and 1.0D-09 maximum.
          NewPWx=F KeepS1=T KeepF1=T KeepIn=T MapXYZ=F SortEE=F KeepMc=T.
 Keep R1 ints in memory in canonical form, NReq=1016399.
 FoFCou: FMM=F IPFlag=           0 FMFlag=           0 FMFlg1=           0
         NFxFlg=           0 DoJE=F BraDBF=F KetDBF=F FulRan=T
         wScrn=  0.000000 ICntrl=       600 IOpCl=  0 I1Cent=           0 NGrid=           0
         NMat0=    1 NMatS0=    595 NMatT0=    0 NMatD0=    1 NMtDS0=    0 NMtDT0=    0
 Symmetry not used in FoFCou.
 Two-electron integral symmetry not used.
          MDV=     536870912 using IRadAn=       5.
          Solving linear equations separately, MaxMat=       0.
          There are     1 degrees of freedom in the 1st order CPHF.  IDoFFX=0 NUNeed=     1.
 LinEq1:  Iter=  0 NonCon=     1 RMS=3.36D-03 Max=1.28D-02 NDo=     1
 AX will form     1 AO Fock derivatives at one time.
 LinEq1:  Iter=  1 NonCon=     1 RMS=9.05D-04 Max=4.31D-03 NDo=     1
 LinEq1:  Iter=  2 NonCon=     1 RMS=1.51D-04 Max=5.62D-04 NDo=     1
 LinEq1:  Iter=  3 NonCon=     1 RMS=9.49D-06 Max=3.87D-05 NDo=     1
 LinEq1:  Iter=  4 NonCon=     1 RMS=5.25D-07 Max=1.71D-06 NDo=     1
 LinEq1:  Iter=  5 NonCon=     1 RMS=1.69D-08 Max=1.14D-07 NDo=     1
 LinEq1:  Iter=  6 NonCon=     1 RMS=9.57D-10 Max=6.93D-09 NDo=     1
 LinEq1:  Iter=  7 NonCon=     0 RMS=9.12D-11 Max=8.22D-10 NDo=     1
 Linear equations converged to 1.000D-10 1.000D-09 after     7 iterations.
 End of Minotr F.D. properties file   721 does not exist.
 End of Minotr F.D. properties file   722 does not exist.
 End of Minotr F.D. properties file   788 does not exist.
 Leave Link 1002 at Thu Dec 16 11:32:20 2021, MaxMem=   536870912 cpu:               1.9 elap:               0.5
 (Enter /opt/gaussian/g16/sse4/g16/l601.exe)
 Copying SCF densities to generalized density rwf, IOpCl= 0 IROHF=0.

 **********************************************************************

            Population analysis using the SCF density.

 **********************************************************************

 Orbital symmetries:
       Occupied  (A) (A) (A) (A) (A)
       Virtual   (A) (A) (A) (A) (A) (A) (A) (A) (A) (A) (A) (A)
                 (A) (A) (A) (A) (A) (A) (A) (A) (A) (A) (A) (A)
                 (A) (A) (A) (A) (A)
 The electronic state is 1-A.
 Alpha  occ. eigenvalues --  -11.21723  -0.94110  -0.54201  -0.54201  -0.54201
 Alpha virt. eigenvalues --    0.19275   0.27368   0.27368   0.27368   0.58959
 Alpha virt. eigenvalues --    0.58959   0.58959   0.88807   0.88807   0.88807
 Alpha virt. eigenvalues --    0.93101   1.13122   1.13122   1.25607   1.68409
 Alpha virt. eigenvalues --    1.68409   1.68409   1.89131   1.89131   1.89131
 Alpha virt. eigenvalues --    2.20909   2.20909   2.20909   2.53972   2.53973
 Alpha virt. eigenvalues --    2.74226   2.78941   2.78942   2.78943
          Condensed to atoms (all electrons):
               1          2          3          4          5
     1  C    4.485605   0.414925   0.414925   0.414926   0.414925
     2  H    0.414925   0.615503  -0.022252  -0.022251  -0.022251
     3  H    0.414925  -0.022252   0.615503  -0.022251  -0.022251
     4  H    0.414926  -0.022251  -0.022251   0.615502  -0.022252
     5  H    0.414925  -0.022251  -0.022251  -0.022252   0.615502
 Mulliken charges:
               1
     1  C   -0.145307
     2  H    0.036327
     3  H    0.036327
     4  H    0.036327
     5  H    0.036327
 Sum of Mulliken charges =   0.00000
 Mulliken charges with hydrogens summed into heavy atoms:
               1
     1  C    0.000000
 Electronic spatial extent (au):  <R**2>=             35.6946
 Charge=              0.0000 electrons
 Dipole moment (field-independent basis, Debye):
    X=              0.0000    Y=             -0.0000    Z=             -0.0000  Tot=              0.0000
 Quadrupole moment (field-independent basis, Debye-Ang):
   XX=             -8.3638   YY=             -8.3638   ZZ=             -8.3638
   XY=             -0.0000   XZ=              0.0000   YZ=              0.0000
 Traceless Quadrupole moment (field-independent basis, Debye-Ang):
   XX=             -0.0000   YY=             -0.0000   ZZ=              0.0000
   XY=             -0.0000   XZ=              0.0000   YZ=              0.0000
 Octapole moment (field-independent basis, Debye-Ang**2):
  XXX=             -0.1885  YYY=              0.5815  ZZZ=              0.3175  XYY=              0.2535
  XXY=             -0.1898  XXZ=             -0.5367  XZZ=             -0.0649  YZZ=             -0.3917
  YYZ=              0.2191  XYZ=              0.1769
 Hexadecapole moment (field-independent basis, Debye-Ang**3):
 XXXX=            -15.5303 YYYY=            -15.3623 ZZZZ=            -15.7175 XXXY=             -0.1985
 XXXZ=              0.1895 YYYX=              0.2554 YYYZ=              0.1600 ZZZX=             -0.1019
 ZZZY=             -0.4102 XXYY=             -5.4064 XXZZ=             -5.0512 YYZZ=             -5.2192
 XXYZ=              0.2503 YYXZ=             -0.0876 ZZXY=             -0.0569
 N-N= 1.340832515069D+01 E-N=-1.197363536384D+02  KE= 4.009101372117D+01
 No NMR shielding tensors so no spin-rotation constants.
 Leave Link  601 at Thu Dec 16 11:32:20 2021, MaxMem=   536870912 cpu:               0.6 elap:               0.2
 (Enter /opt/gaussian/g16/sse4/g16/l701.exe)
 ... and contract with generalized density number  7.
 Compute integral first derivatives.
 Leave Link  701 at Thu Dec 16 11:32:21 2021, MaxMem=   536870912 cpu:               0.5 elap:               0.2
 (Enter /opt/gaussian/g16/sse4/g16/l702.exe)
 L702 exits ... SP integral derivatives will be done elsewhere.
 Leave Link  702 at Thu Dec 16 11:32:21 2021, MaxMem=   536870912 cpu:               0.1 elap:               0.0
 (Enter /opt/gaussian/g16/sse4/g16/l703.exe)
 Integral derivatives from FoFJK, PRISM(SPDF).
 Compute integral first derivatives, UseDBF=F ICtDFT=           0.
 Calling FoFJK, ICntrl=  10002127 FMM=F ISym2X=0 I1Cent= 0 IOpClX= 0 NMat=1 NMatS=1 NMatT=0.
 FoFJK:  IHMeth= 1 ICntrl=10002127 DoSepK=F KAlg= 0 I1Cent=           0 FoldK=F
 IRaf=         0 NMat=       1 IRICut=       1 DoRegI=T DoRafI=F ISym2E= 0 IDoP0=0 IntGTp=1.
 FoFCou: FMM=F IPFlag=           0 FMFlag=      100000 FMFlg1=         800
         NFxFlg=           0 DoJE=F BraDBF=F KetDBF=F FulRan=T
         wScrn=  0.000000 ICntrl=  10002127 IOpCl=  0 I1Cent=           0 NGrid=           0
         NMat0=    1 NMatS0=      1 NMatT0=    0 NMatD0=    1 NMtDS0=    0 NMtDT0=    0
 Symmetry not used in FoFCou.
 Leave Link  703 at Thu Dec 16 11:32:21 2021, MaxMem=   536870912 cpu:               0.8 elap:               0.2
 (Enter /opt/gaussian/g16/sse4/g16/l716.exe)
 Dipole        = 1.28713720D-06-1.63650285D-07-3.97256921D-07
 ***** Axes restored to original set *****
 -------------------------------------------------------------------
 Center     Atomic                   Forces (Hartrees/Bohr)
 Number     Number              X              Y              Z
 -------------------------------------------------------------------
      1        6          -0.000000089    0.000001100    0.000004466
      2        1           0.007211971    0.000000413   -0.000000492
      3        1          -0.002403910   -0.004594136    0.005010270
      4        1          -0.002404754   -0.002043569   -0.006488342
      5        1          -0.002403218    0.006636192    0.001474099
 -------------------------------------------------------------------
 Cartesian Forces:  Max     0.007211971 RMS     0.003724203
 Leave Link  716 at Thu Dec 16 11:32:22 2021, MaxMem=   536870912 cpu:               0.9 elap:               0.7
 (Enter /opt/gaussian/g16/sse4/g16/l103.exe)

 GradGradGradGradGradGradGradGradGradGradGradGradGradGradGradGradGradGrad
 Berny optimization.
 FormGI is forming the generalized inverse of G from B-inverse, IUseBI=4.
 Internal  Forces:  Max     0.007215096 RMS     0.003854916
 Search for a local minimum.
 Step number   1 out of a maximum of   24
 All quantities printed in internal units (Hartrees-Bohrs-Radians)
 RMS Force = .38549D-02 SwitMx=.10000D-02 MixMth= 1
 Mixed Optimization -- RFO/linear search
 Second derivative matrix not updated -- first step.
 The second derivative matrix:
                          R1        R2        R3        R4        A1
           R1           0.34560
           R2           0.00000   0.34559
           R3           0.00000   0.00000   0.34560
           R4           0.00000   0.00000   0.00000   0.34559
           A1           0.00000   0.00000   0.00000   0.00000   0.16000
           A2           0.00000   0.00000   0.00000   0.00000   0.00000
           A3           0.00000   0.00000   0.00000   0.00000   0.00000
           A4           0.00000   0.00000   0.00000   0.00000   0.00000
           A5           0.00000   0.00000   0.00000   0.00000   0.00000
           A6           0.00000   0.00000   0.00000   0.00000   0.00000
           D1           0.00000   0.00000   0.00000   0.00000   0.00000
           D2           0.00000   0.00000   0.00000   0.00000   0.00000
           D3           0.00000   0.00000   0.00000   0.00000   0.00000
           D4           0.00000   0.00000   0.00000   0.00000   0.00000
                          A2        A3        A4        A5        A6
           A2           0.16000
           A3           0.00000   0.16000
           A4           0.00000   0.00000   0.16000
           A5           0.00000   0.00000   0.00000   0.16000
           A6           0.00000   0.00000   0.00000   0.00000   0.16000
           D1           0.00000   0.00000   0.00000   0.00000   0.00000
           D2           0.00000   0.00000   0.00000   0.00000   0.00000
           D3           0.00000   0.00000   0.00000   0.00000   0.00000
           D4           0.00000   0.00000   0.00000   0.00000   0.00000
                          D1        D2        D3        D4
           D1           0.00230
           D2           0.00000   0.00230
           D3           0.00000   0.00000   0.00230
           D4           0.00000   0.00000   0.00000   0.00230
 ITU=  0
     Eigenvalues ---    0.05082   0.05715   0.08641   0.16000   0.16000
     Eigenvalues ---    0.34559   0.34559   0.34560   0.34560
 RFO step:  Lambda=-6.00942698D-04 EMin= 5.08229818D-02
 Linear search not attempted -- first point.
 Iteration  1 RMS(Cart)=  0.01113503 RMS(Int)=  0.00000003
 Iteration  2 RMS(Cart)=  0.00000003 RMS(Int)=  0.00000000
 ITry= 1 IFail=0 DXMaxC= 2.08D-02 DCOld= 1.00D+10 DXMaxT= 3.00D-01 DXLimC= 3.00D+00 Rises=F
 Variable       Old X    -DE/DX   Delta X   Delta X   Delta X     New X
                                 (Linear)    (Quad)   (Total)
    R1        2.06396   0.00721   0.00000   0.02083   0.02083   2.08479
    R2        2.06396   0.00721   0.00000   0.02083   0.02083   2.08479
    R3        2.06395   0.00722   0.00000   0.02084   0.02084   2.08479
    R4        2.06396   0.00721   0.00000   0.02083   0.02083   2.08479
    A1        1.91063   0.00000   0.00000   0.00001   0.00001   1.91063
    A2        1.91064  -0.00000   0.00000  -0.00000  -0.00000   1.91064
    A3        1.91064  -0.00000   0.00000  -0.00000  -0.00000   1.91063
    A4        1.91063  -0.00000   0.00000  -0.00000  -0.00000   1.91063
    A5        1.91064  -0.00000   0.00000  -0.00000  -0.00000   1.91063
    A6        1.91063   0.00000   0.00000   0.00000   0.00000   1.91063
    D1        2.09439   0.00000   0.00000   0.00000   0.00000   2.09439
    D2       -2.09439  -0.00000   0.00000  -0.00000  -0.00000  -2.09439
    D3        2.09440  -0.00000   0.00000  -0.00000  -0.00000   2.09440
    D4       -2.09440   0.00000   0.00000   0.00000   0.00000  -2.09440
         Item               Value     Threshold  Converged?
 Maximum Force            0.007215     0.000450     NO 
 RMS     Force            0.003855     0.000300     NO 
 Maximum Displacement     0.020832     0.001800     NO 
 RMS     Displacement     0.011135     0.001200     NO 
 Predicted change in Energy=-3.009938D-04
 Lowest energy point so far.  Saving SCF results.
 GradGradGradGradGradGradGradGradGradGradGradGradGradGradGradGradGradGrad

 Leave Link  103 at Thu Dec 16 11:32:22 2021, MaxMem=   536870912 cpu:               0.0 elap:               0.0
 (Enter /opt/gaussian/g16/sse4/g16/l202.exe)
                          Input orientation:                          
 ---------------------------------------------------------------------
 Center     Atomic      Atomic             Coordinates (Angstroms)
 Number     Number       Type             X           Y           Z
 ---------------------------------------------------------------------
      1          6           0        1.018250    0.093150    0.031471
      2          1           0        2.121474    0.093152    0.031469
      3          1           0        0.650514   -0.609822    0.798090
      4          1           0        0.650505   -0.219274   -0.960626
      5          1           0        0.650507    1.108544    0.256956
 ---------------------------------------------------------------------
                    Distance matrix (angstroms):
                    1          2          3          4          5
     1  C    0.000000
     2  H    1.103224   0.000000
     3  H    1.103224   1.801556   0.000000
     4  H    1.103224   1.801558   1.801557   0.000000
     5  H    1.103224   1.801557   1.801556   1.801557   0.000000
 Stoichiometry    CH4
 Framework group  C1[X(CH4)]
 Deg. of freedom     9
 Full point group                 C1      NOp   1
 RotChk:  IX=0 Diff= 2.00D+00
 Largest Abelian subgroup         C1      NOp   1
 Largest concise Abelian subgroup C1      NOp   1
                         Standard orientation:                         
 ---------------------------------------------------------------------
 Center     Atomic      Atomic             Coordinates (Angstroms)
 Number     Number       Type             X           Y           Z
 ---------------------------------------------------------------------
      1          6           0        0.000000    0.000000   -0.000000
      2          1           0       -0.689577    0.378956   -0.773291
      3          1           0       -0.414327    0.215185    0.999565
      4          1           0        0.979925    0.495516   -0.106366
      5          1           0        0.123977   -1.089658   -0.119907
 ---------------------------------------------------------------------
 Rotational constants (GHZ):         154.5028484         154.5026674         154.5025946
 Leave Link  202 at Thu Dec 16 11:32:22 2021, MaxMem=   536870912 cpu:               0.0 elap:               0.0
 (Enter /opt/gaussian/g16/sse4/g16/l301.exe)
 Standard basis: CC-pVDZ (5D, 7F)
 Ernie: Thresh=  0.10000D-02 Tol=  0.10000D-05 Strict=F.
 Ernie:  2 primitive shells out of 42 were deleted.
 There are    35 symmetry adapted cartesian basis functions of A   symmetry.
 There are    34 symmetry adapted basis functions of A   symmetry.
    34 basis functions,    61 primitive gaussians,    35 cartesian basis functions
     5 alpha electrons        5 beta electrons
       nuclear repulsion energy        13.2743459183 Hartrees.
 IExCor=    0 DFT=F Ex=HF Corr=None ExCW=0 ScaHFX=  1.000000
 ScaDFX=  1.000000  1.000000  1.000000  1.000000 ScalE2=  1.000000  1.000000
 IRadAn=      5 IRanWt=     -1 IRanGd=            0 ICorTp=0 IEmpDi=  4
 NAtoms=    5 NActive=    5 NUniq=    5 SFac= 1.00D+00 NAtFMM=   60 NAOKFM=F Big=F
 Integral buffers will be    131072 words long.
 Raffenetti 1 integral format.
 Two-electron integral symmetry is turned on.
 Leave Link  301 at Thu Dec 16 11:32:22 2021, MaxMem=   536870912 cpu:               0.2 elap:               0.1
 (Enter /opt/gaussian/g16/sse4/g16/l302.exe)
 NPDir=0 NMtPBC=     1 NCelOv=     1 NCel=       1 NClECP=     1 NCelD=      1
         NCelK=      1 NCelE2=     1 NClLst=     1 CellRange=     0.0.
 One-electron integrals computed using PRISM.
 One-electron integral symmetry used in STVInt
 NBasis=    34 RedAO= T EigKep=  2.39D-02  NBF=    34
 NBsUse=    34 1.00D-06 EigRej= -1.00D+00 NBFU=    34
 Leave Link  302 at Thu Dec 16 11:32:23 2021, MaxMem=   536870912 cpu:               0.5 elap:               0.1
 (Enter /opt/gaussian/g16/sse4/g16/l303.exe)
 DipDrv:  MaxL=1.
 Leave Link  303 at Thu Dec 16 11:32:23 2021, MaxMem=   536870912 cpu:               0.1 elap:               0.0
 (Enter /opt/gaussian/g16/sse4/g16/l401.exe)
 Initial guess from the checkpoint file:  "CCSD_Methane_gaus.chk"
 B after Tr=     0.000000   -0.000000    0.000000
         Rot=    0.707830    0.411626    0.198588   -0.538613 Ang=  89.88 deg.
 Guess basis will be translated and rotated to current coordinates.
 JPrj=2 DoOrth=T DoCkMO=T.
 Generating alternative initial guess.
 ExpMin= 1.22D-01 ExpMax= 6.67D+03 ExpMxC= 2.28D+02 IAcc=2 IRadAn=         4 AccDes= 0.00D+00
 Harris functional with IExCor=  205 and IRadAn=       4 diagonalized for initial guess.
 HarFok:  IExCor=  205 AccDes= 0.00D+00 IRadAn=         4 IDoV= 1 UseB2=F ITyADJ=14
 ICtDFT=  3500011 ScaDFX=  1.000000  1.000000  1.000000  1.000000
 FoFCou: FMM=F IPFlag=           0 FMFlag=      100000 FMFlg1=           0
         NFxFlg=           0 DoJE=T BraDBF=F KetDBF=T FulRan=T
         wScrn=  0.000000 ICntrl=       500 IOpCl=  0 I1Cent=   200000004 NGrid=           0
         NMat0=    1 NMatS0=      1 NMatT0=    0 NMatD0=    1 NMtDS0=    0 NMtDT0=    0
 Petite list used in FoFCou.
 Harris En= -40.3645494820874    
 Leave Link  401 at Thu Dec 16 11:32:23 2021, MaxMem=   536870912 cpu:               1.1 elap:               0.3
 (Enter /opt/gaussian/g16/sse4/g16/l502.exe)
 Keep R1 ints in memory in canonical form, NReq=1015602.
 FoFCou: FMM=F IPFlag=           0 FMFlag=           0 FMFlg1=           0
         NFxFlg=           0 DoJE=F BraDBF=F KetDBF=F FulRan=T
         wScrn=  0.000000 ICntrl=       600 IOpCl=  0 I1Cent=           0 NGrid=           0
         NMat0=    1 NMatS0=    595 NMatT0=    0 NMatD0=    1 NMtDS0=    0 NMtDT0=    0
 Symmetry not used in FoFCou.
 Two-electron integral symmetry not used.
 Closed shell SCF:
 Using DIIS extrapolation, IDIIS=  1040.
 NGot=   536870912 LenX=   536690353 LenY=   536688687
 Requested convergence on RMS density matrix=1.00D-08 within 128 cycles.
 Requested convergence on MAX density matrix=1.00D-06.
 Requested convergence on             energy=1.00D-06.
 No special actions if energy rises.

 Cycle   1  Pass 1  IDiag  1:
 E= -40.1982281655401    
 DIIS: error= 1.85D-03 at cycle   1 NSaved=   1.
 NSaved= 1 IEnMin= 1 EnMin= -40.1982281655401     IErMin= 1 ErrMin= 1.85D-03
 ErrMax= 1.85D-03  0.00D+00 EMaxC= 1.00D-01 BMatC= 5.38D-05 BMatP= 5.38D-05
 IDIUse=3 WtCom= 9.82D-01 WtEn= 1.85D-02
 Coeff-Com:  0.100D+01
 Coeff-En:   0.100D+01
 Coeff:      0.100D+01
 Gap=     1.052 Goal=   None    Shift=    0.000
 GapD=    1.052 DampG=2.000 DampE=1.000 DampFc=2.0000 IDamp=-1.
 RMSDP=2.60D-04 MaxDP=2.96D-03              OVMax= 2.48D-03

 Cycle   2  Pass 1  IDiag  1:
 E= -40.1982943674701     Delta-E=       -0.000066201930 Rises=F Damp=F
 DIIS: error= 5.14D-04 at cycle   2 NSaved=   2.
 NSaved= 2 IEnMin= 2 EnMin= -40.1982943674701     IErMin= 2 ErrMin= 5.14D-04
 ErrMax= 5.14D-04  0.00D+00 EMaxC= 1.00D-01 BMatC= 4.50D-06 BMatP= 5.38D-05
 IDIUse=3 WtCom= 9.95D-01 WtEn= 5.14D-03
 Coeff-Com:  0.250D-01 0.975D+00
 Coeff-En:   0.000D+00 0.100D+01
 Coeff:      0.249D-01 0.975D+00
 Gap=     0.731 Goal=   None    Shift=    0.000
 RMSDP=5.39D-05 MaxDP=6.50D-04 DE=-6.62D-05 OVMax= 8.71D-04

 Cycle   3  Pass 1  IDiag  1:
 E= -40.1982987130706     Delta-E=       -0.000004345601 Rises=F Damp=F
 DIIS: error= 1.21D-04 at cycle   3 NSaved=   3.
 NSaved= 3 IEnMin= 3 EnMin= -40.1982987130706     IErMin= 3 ErrMin= 1.21D-04
 ErrMax= 1.21D-04  0.00D+00 EMaxC= 1.00D-01 BMatC= 4.03D-07 BMatP= 4.50D-06
 IDIUse=3 WtCom= 9.99D-01 WtEn= 1.21D-03
 Coeff-Com: -0.628D-01 0.173D+00 0.890D+00
 Coeff-En:   0.000D+00 0.000D+00 0.100D+01
 Coeff:     -0.628D-01 0.173D+00 0.890D+00
 Gap=     0.731 Goal=   None    Shift=    0.000
 RMSDP=1.67D-05 MaxDP=1.75D-04 DE=-4.35D-06 OVMax= 2.23D-04

 Cycle   4  Pass 1  IDiag  1:
 E= -40.1982992054644     Delta-E=       -0.000000492394 Rises=F Damp=F
 DIIS: error= 1.25D-05 at cycle   4 NSaved=   4.
 NSaved= 4 IEnMin= 4 EnMin= -40.1982992054644     IErMin= 4 ErrMin= 1.25D-05
 ErrMax= 1.25D-05  0.00D+00 EMaxC= 1.00D-01 BMatC= 2.92D-09 BMatP= 4.03D-07
 IDIUse=1 WtCom= 1.00D+00 WtEn= 0.00D+00
 Coeff-Com:  0.139D-01-0.478D-01-0.226D+00 0.126D+01
 Coeff:      0.139D-01-0.478D-01-0.226D+00 0.126D+01
 Gap=     0.731 Goal=   None    Shift=    0.000
 RMSDP=2.00D-06 MaxDP=1.53D-05 DE=-4.92D-07 OVMax= 2.70D-05

 Cycle   5  Pass 1  IDiag  1:
 E= -40.1982992112491     Delta-E=       -0.000000005785 Rises=F Damp=F
 DIIS: error= 1.01D-06 at cycle   5 NSaved=   5.
 NSaved= 5 IEnMin= 5 EnMin= -40.1982992112491     IErMin= 5 ErrMin= 1.01D-06
 ErrMax= 1.01D-06  0.00D+00 EMaxC= 1.00D-01 BMatC= 2.31D-11 BMatP= 2.92D-09
 IDIUse=1 WtCom= 1.00D+00 WtEn= 0.00D+00
 Coeff-Com: -0.232D-02 0.851D-02 0.382D-01-0.260D+00 0.122D+01
 Coeff:     -0.232D-02 0.851D-02 0.382D-01-0.260D+00 0.122D+01
 Gap=     0.731 Goal=   None    Shift=    0.000
 RMSDP=3.17D-07 MaxDP=1.77D-06 DE=-5.78D-09 OVMax= 2.94D-06

 Cycle   6  Pass 1  IDiag  1:
 E= -40.1982992113008     Delta-E=       -0.000000000052 Rises=F Damp=F
 DIIS: error= 1.53D-07 at cycle   6 NSaved=   6.
 NSaved= 6 IEnMin= 6 EnMin= -40.1982992113008     IErMin= 6 ErrMin= 1.53D-07
 ErrMax= 1.53D-07  0.00D+00 EMaxC= 1.00D-01 BMatC= 5.19D-13 BMatP= 2.31D-11
 IDIUse=1 WtCom= 1.00D+00 WtEn= 0.00D+00
 Coeff-Com:  0.562D-03-0.199D-02-0.976D-02 0.665D-01-0.372D+00 0.132D+01
 Coeff:      0.562D-03-0.199D-02-0.976D-02 0.665D-01-0.372D+00 0.132D+01
 Gap=     0.731 Goal=   None    Shift=    0.000
 RMSDP=5.43D-08 MaxDP=3.86D-07 DE=-5.17D-11 OVMax= 4.01D-07

 Cycle   7  Pass 1  IDiag  1:
 E= -40.1982992113019     Delta-E=       -0.000000000001 Rises=F Damp=F
 DIIS: error= 1.47D-08 at cycle   7 NSaved=   7.
 NSaved= 7 IEnMin= 7 EnMin= -40.1982992113019     IErMin= 7 ErrMin= 1.47D-08
 ErrMax= 1.47D-08  0.00D+00 EMaxC= 1.00D-01 BMatC= 3.76D-15 BMatP= 5.19D-13
 IDIUse=1 WtCom= 1.00D+00 WtEn= 0.00D+00
 Coeff-Com: -0.819D-04 0.290D-03 0.143D-02-0.975D-02 0.584D-01-0.273D+00
 Coeff-Com:  0.122D+01
 Coeff:     -0.819D-04 0.290D-03 0.143D-02-0.975D-02 0.584D-01-0.273D+00
 Coeff:      0.122D+01
 Gap=     0.731 Goal=   None    Shift=    0.000
 RMSDP=4.11D-09 MaxDP=3.78D-08 DE=-1.07D-12 OVMax= 4.88D-08

 SCF Done:  E(RHF) =  -40.1982992113     A.U. after    7 cycles
            NFock=  7  Conv=0.41D-08     -V/T= 2.0042
 KE= 4.003036027322D+01 PE=-1.194223700775D+02 EE= 2.591936467471D+01
 Leave Link  502 at Thu Dec 16 11:32:24 2021, MaxMem=   536870912 cpu:               1.4 elap:               0.4
 (Enter /opt/gaussian/g16/sse4/g16/l801.exe)
 Windowed orbitals will be sorted by symmetry type.
 ExpMin= 1.22D-01 ExpMax= 6.67D+03 ExpMxC= 2.28D+02 IAcc=3 IRadAn=         5 AccDes= 0.00D+00
 HarFok:  IExCor=  205 AccDes= 0.00D+00 IRadAn=         5 IDoV=-2 UseB2=F ITyADJ=14
 ICtDFT= 12500011 ScaDFX=  1.000000  1.000000  1.000000  1.000000
 Largest valence mixing into a core orbital is  1.04D-04
 Largest core mixing into a valence orbital is  3.37D-05
 Range of M.O.s used for correlation:     2    34
 NBasis=    34 NAE=     5 NBE=     5 NFC=     1 NFV=     0
 NROrb=     33 NOA=     4 NOB=     4 NVA=    29 NVB=    29
 Leave Link  801 at Thu Dec 16 11:32:24 2021, MaxMem=   536870912 cpu:               0.3 elap:               0.1
 (Enter /opt/gaussian/g16/sse4/g16/l804.exe)
 Closed-shell transformation, MDV=   536870912 ITran=4 ISComp=1.
 Semi-Direct transformation.
 ModeAB=           2 MOrb=             4 LenV=     536671785
 LASXX=        63705 LTotXX=       63705 LenRXX=       63705
 LTotAB=       69526 MaxLAS=       83160 LenRXY=       83160
 NonZer=      127410 LenScr=      785920 LnRSAI=           0
 LnScr1=           0 LExtra=           0 Total=       932785
 MaxDsk=          -1 SrtSym=           F ITran=            4
 DoSDTr:  NPSUse=  4
 JobTyp=0 Pass  1:  I=   1 to   4.
 (rs|ai) integrals will be sorted in core.
 Complete sort for first half transformation.
 First half transformation complete.
 Complete sort for second half transformation.
 Second half transformation complete.
 SymMOI:  orbitals are not symmetric.
 Spin components of T(2) and E(2):
     alpha-alpha T2 =       0.5356509417D-02 E2=     -0.1512778604D-01
     alpha-beta  T2 =       0.4437178124D-01 E2=     -0.1315849006D+00
     beta-beta   T2 =       0.5356509417D-02 E2=     -0.1512778604D-01
 ANorm=    0.1027173208D+01
 E2 =    -0.1618404727D+00 EUMP2 =    -0.40360139683960D+02
 Leave Link  804 at Thu Dec 16 11:32:24 2021, MaxMem=   536870912 cpu:               0.4 elap:               0.1
 (Enter /opt/gaussian/g16/sse4/g16/l913.exe)
 CIDS:  MDV=   536870912.
 Frozen-core window:  NFC=   1 NFV=   0.
 IFCWin=0 IBDFC=1 NFBD=     0     0 NFCmp=     0     0 NFFFC=     0     0
 Using DD3R+UMP44R for 1st iteration.
 Using DD4RQ for 2nd and later iterations.
 Keep R2 and R3 ints in memory in canonical form, NReq=1195676.
 FoFCou: FMM=F IPFlag=           0 FMFlag=           0 FMFlg1=           0
         NFxFlg=           0 DoJE=F BraDBF=F KetDBF=F FulRan=T
         wScrn=  0.000000 ICntrl=       600 IOpCl=  0 I1Cent=           0 NGrid=           0
         NMat0=    1 NMatS0=    595 NMatT0=    0 NMatD0=    1 NMtDS0=    0 NMtDT0=    0
 Symmetry not used in FoFCou.
 Two-electron integral symmetry not used.
 CIDS: In Core Option IDoMem=           1.
 Coupled Cluster theory with single and double substitutions
 ===========================================================
 Iterations=  50 Convergence= 0.100D-07
 Produce multiple copies of IABC intergrals
 Iteration Nr.   1
 **********************
 DD1Dir will call FoFMem   1 times, MxPair=        20
 NAB=    10 NAA=     0 NBB=     0.
 MP4(R+Q)=  0.26364757D-02
 Maximum subspace dimension=  5
 A-vector RMS=  2.8784037D-03 Max=  4.6732602D-03 conv= 1.00D-06.
 RLE energy=       -0.1817154090
 E3=       -0.20365080D-01        EUMP3=      -0.40380504764D+02
 E4(DQ)=   -0.23198939D-02        UMP4(DQ)=   -0.40382824658D+02
 E4(SDQ)=  -0.28890965D-02        UMP4(SDQ)=  -0.40383393860D+02
 VARIATIONAL ENERGIES WITH THE FIRST-ORDER WAVEFUNCTION:
 DE(Corr)= -0.17954161     E(Corr)=     -40.377840825    
 NORM(A)=   0.10348731D+01
 Iteration Nr.   2
 **********************
 DD1Dir will call FoFMem   1 times, MxPair=        20
 NAB=    10 NAA=     0 NBB=     0.
 A-vector RMS=  5.3086135D-04 Max=  1.2024722D-03 conv= 1.00D-06.
 RLE energy=       -0.1852665731
 DE(Corr)= -0.18427100     E(CORR)=     -40.382570209     Delta=-4.73D-03
 NORM(A)=   0.10367896D+01
 Iteration Nr.   3
 **********************
 DD1Dir will call FoFMem   1 times, MxPair=        20
 NAB=    10 NAA=     0 NBB=     0.
 A-vector RMS=  1.8598580D-04 Max=  2.8991083D-04 conv= 1.00D-06.
 RLE energy=       -0.1855185379
 DE(Corr)= -0.18531575     E(CORR)=     -40.383614965     Delta=-1.04D-03
 NORM(A)=   0.10371068D+01
 Iteration Nr.   4
 **********************
 DD1Dir will call FoFMem   1 times, MxPair=        20
 NAB=    10 NAA=     0 NBB=     0.
 A-vector RMS=  3.0190408D-05 Max=  6.6090760D-05 conv= 1.00D-06.
 RLE energy=       -0.1855543972
 DE(Corr)= -0.18553340     E(CORR)=     -40.383832610     Delta=-2.18D-04
 NORM(A)=   0.10371463D+01
 Iteration Nr.   5
 **********************
 DD1Dir will call FoFMem   1 times, MxPair=        20
 NAB=    10 NAA=     0 NBB=     0.
 A-vector RMS=  7.2387147D-06 Max=  1.5971689D-05 conv= 1.00D-06.
 RLE energy=       -0.1855479676
 DE(Corr)= -0.18554913     E(CORR)=     -40.383848338     Delta=-1.57D-05
 NORM(A)=   0.10371445D+01
 Iteration Nr.   6
 **********************
 DD1Dir will call FoFMem   1 times, MxPair=        20
 NAB=    10 NAA=     0 NBB=     0.
 A-vector RMS=  1.5337935D-06 Max=  3.5813561D-06 conv= 1.00D-06.
 RLE energy=       -0.1855490203
 DE(Corr)= -0.18554885     E(CORR)=     -40.383848064     Delta= 2.74D-07
 NORM(A)=   0.10371448D+01
 Iteration Nr.   7
 **********************
 DD1Dir will call FoFMem   1 times, MxPair=        20
 NAB=    10 NAA=     0 NBB=     0.
 A-vector RMS=  3.2313212D-07 Max=  1.1672887D-06 conv= 1.00D-06.
 RLE energy=       -0.1855490367
 DE(Corr)= -0.18554897     E(CORR)=     -40.383848186     Delta=-1.22D-07
 NORM(A)=   0.10371448D+01
 Iteration Nr.   8
 **********************
 DD1Dir will call FoFMem   1 times, MxPair=        20
 NAB=    10 NAA=     0 NBB=     0.
 A-vector RMS=  6.7427332D-08 Max=  2.6218605D-07 conv= 1.00D-06.
 RLE energy=       -0.1855489928
 DE(Corr)= -0.18554899     E(CORR)=     -40.383848205     Delta=-1.90D-08
 NORM(A)=   0.10371448D+01
 Iteration Nr.   9
 **********************
 DD1Dir will call FoFMem   1 times, MxPair=        20
 NAB=    10 NAA=     0 NBB=     0.
 A-vector RMS=  2.1318338D-08 Max=  8.4756908D-08 conv= 1.00D-06.
 RLE energy=       -0.1855489801
 DE(Corr)= -0.18554898     E(CORR)=     -40.383848195     Delta= 1.05D-08
 NORM(A)=   0.10371448D+01
 Iteration Nr.  10
 **********************
 DD1Dir will call FoFMem   1 times, MxPair=        20
 NAB=    10 NAA=     0 NBB=     0.
 A-vector RMS=  4.6771657D-09 Max=  1.5058548D-08 conv= 1.00D-06.
 RLE energy=       -0.1855489772
 DE(Corr)= -0.18554898     E(CORR)=     -40.383848190     Delta= 4.65D-09
 NORM(A)=   0.10371448D+01
 CI/CC converged in   10 iterations to DelEn= 4.65D-09 Conv= 1.00D-08 ErrA1= 4.68D-09 Conv= 1.00D-06
 Wavefunction amplitudes converged. E(Corr)=     -40.383848190    
 Largest amplitude= 3.25D-02

 Z-amplitude iterations

 Iteration Nr.   1
 **********************
 DD1Dir will call FoFMem   1 times, MxPair=        20
 NAB=    10 NAA=     0 NBB=     0.
 A-vector RMS=  1.0451309D-03 Max=  2.1281338D-03 conv= 1.00D-06.
 RLE energy=       -0.1855483421
 DE(Z)= -0.18164328     E(Z)=     -40.379942492     Delta= 3.91D-03
 NORM(A)=   0.10371445D+01
 Iteration Nr.   2
 **********************
 DD1Dir will call FoFMem   1 times, MxPair=        20
 NAB=    10 NAA=     0 NBB=     0.
 A-vector RMS=  1.0449894D-03 Max=  2.1278411D-03 conv= 1.00D-06.
 RLE energy=       -0.1855507425
 DE(Z)= -0.18164318     E(Z)=     -40.379942395     Delta= 9.73D-08
 NORM(A)=   0.10371455D+01
 Iteration Nr.   3
 **********************
 DD1Dir will call FoFMem   1 times, MxPair=        20
 NAB=    10 NAA=     0 NBB=     0.
 A-vector RMS=  1.0455172D-03 Max=  2.1289228D-03 conv= 1.00D-06.
 RLE energy=       -0.1855479168
 DE(Z)= -0.18164354     E(Z)=     -40.379942753     Delta=-3.58D-07
 NORM(A)=   0.10371443D+01
 Iteration Nr.   4
 **********************
 DD1Dir will call FoFMem   1 times, MxPair=        20
 NAB=    10 NAA=     0 NBB=     0.
 A-vector RMS=  1.0448888D-03 Max=  2.1276395D-03 conv= 1.00D-06.
 RLE energy=       -0.1855507465
 DE(Z)= -0.18164312     E(Z)=     -40.379942335     Delta= 4.18D-07
 NORM(A)=   0.10371455D+01
 Iteration Nr.   5
 **********************
 DD1Dir will call FoFMem   1 times, MxPair=        20
 NAB=    10 NAA=     0 NBB=     0.
 A-vector RMS=  1.0455355D-03 Max=  2.1289587D-03 conv= 1.00D-06.
 RLE energy=       -0.1809677394
 DE(Z)= -0.18164354     E(Z)=     -40.379942754     Delta=-4.19D-07
 NORM(A)=   0.10352784D+01
 Iteration Nr.   6
 **********************
 DD1Dir will call FoFMem   1 times, MxPair=        20
 NAB=    10 NAA=     0 NBB=     0.
 A-vector RMS=  4.7739149D-06 Max=  1.1195240D-05 conv= 1.00D-06.
 RLE energy=       -0.1809683260
 DE(Z)= -0.18096726     E(Z)=     -40.379266476     Delta= 6.76D-04
 NORM(A)=   0.10352790D+01
 Iteration Nr.   7
 **********************
 DD1Dir will call FoFMem   1 times, MxPair=        20
 NAB=    10 NAA=     0 NBB=     0.
 A-vector RMS=  9.2351901D-07 Max=  2.1158488D-06 conv= 1.00D-06.
 RLE energy=       -0.1809679789
 DE(Z)= -0.18096795     E(Z)=     -40.379267166     Delta=-6.90D-07
 NORM(A)=   0.10352788D+01
 Iteration Nr.   8
 **********************
 DD1Dir will call FoFMem   1 times, MxPair=        20
 NAB=    10 NAA=     0 NBB=     0.
 A-vector RMS=  1.8639577D-07 Max=  3.7484856D-07 conv= 1.00D-06.
 RLE energy=       -0.1809678866
 DE(Z)= -0.18096788     E(Z)=     -40.379267093     Delta= 7.25D-08
 NORM(A)=   0.10352788D+01
 Iteration Nr.   9
 **********************
 DD1Dir will call FoFMem   1 times, MxPair=        20
 NAB=    10 NAA=     0 NBB=     0.
 A-vector RMS=  5.3532202D-08 Max=  9.9845251D-08 conv= 1.00D-06.
 RLE energy=       -0.1809678632
 DE(Z)= -0.18096787     E(Z)=     -40.379267082     Delta= 1.07D-08
 NORM(A)=   0.10352788D+01
 Iteration Nr.  10
 **********************
 DD1Dir will call FoFMem   1 times, MxPair=        20
 NAB=    10 NAA=     0 NBB=     0.
 A-vector RMS=  6.4712984D-09 Max=  1.3601849D-08 conv= 1.00D-06.
 RLE energy=       -0.1809678679
 DE(Z)= -0.18096787     E(Z)=     -40.379267078     Delta= 4.50D-09
 NORM(A)=   0.10352788D+01
 CI/CC converged in   10 iterations to DelEn= 4.50D-09 Conv= 1.00D-08 ErrA1= 6.47D-09 Conv= 1.00D-06
 Z-amplitudes converged.
 Discarding MO integrals.
 Leave Link  913 at Thu Dec 16 11:32:25 2021, MaxMem=   536870912 cpu:               3.2 elap:               0.8
 (Enter /opt/gaussian/g16/sse4/g16/l1111.exe)
 Unit  1 TFree=        392949 TCopy=        313688.
 Selected functions:
 Compute CCSD 2PDM.
 Form Post-SCF non-separable gradient here.
 IO1PDM=    0 IOW=    0 IO2PDM=    0.
 MDV=     536870912.
 Frozen-core window:  NFC=   1 NFV=   0.
 Leave Link 1111 at Thu Dec 16 11:32:26 2021, MaxMem=   536870912 cpu:               3.7 elap:               0.9
 (Enter /opt/gaussian/g16/sse4/g16/l1002.exe)
 Minotr:  Closed shell wavefunction.
          Computing CCSD/QCISD derivatives.
          Using Z-Vector for PSCF gradient.
          Skipping F1 and S1 gradient terms here.
          IDoAtm=11111
          Frozen-core window.
          Direct CPHF calculation.
          Differentiating once with respect to electric field.
                with respect to dipole field.
          Differentiating once with respect to nuclear coordinates.
          Requested convergence is 1.0D-10 RMS, and 1.0D-09 maximum.
          NewPWx=F KeepS1=T KeepF1=T KeepIn=T MapXYZ=F SortEE=F KeepMc=T.
 Keep R1 ints in memory in canonical form, NReq=1016399.
 FoFCou: FMM=F IPFlag=           0 FMFlag=           0 FMFlg1=           0
         NFxFlg=           0 DoJE=F BraDBF=F KetDBF=F FulRan=T
         wScrn=  0.000000 ICntrl=       600 IOpCl=  0 I1Cent=           0 NGrid=           0
         NMat0=    1 NMatS0=    595 NMatT0=    0 NMatD0=    1 NMtDS0=    0 NMtDT0=    0
 Symmetry not used in FoFCou.
 Two-electron integral symmetry not used.
          MDV=     536870912 using IRadAn=       5.
          Solving linear equations separately, MaxMat=       0.
          There are     1 degrees of freedom in the 1st order CPHF.  IDoFFX=0 NUNeed=     1.
 LinEq1:  Iter=  0 NonCon=     1 RMS=3.44D-03 Max=1.29D-02 NDo=     1
 AX will form     1 AO Fock derivatives at one time.
 LinEq1:  Iter=  1 NonCon=     1 RMS=9.45D-04 Max=4.58D-03 NDo=     1
 LinEq1:  Iter=  2 NonCon=     1 RMS=1.49D-04 Max=6.70D-04 NDo=     1
 LinEq1:  Iter=  3 NonCon=     1 RMS=9.51D-06 Max=4.26D-05 NDo=     1
 LinEq1:  Iter=  4 NonCon=     1 RMS=5.25D-07 Max=1.80D-06 NDo=     1
 LinEq1:  Iter=  5 NonCon=     1 RMS=1.69D-08 Max=1.11D-07 NDo=     1
 LinEq1:  Iter=  6 NonCon=     1 RMS=9.00D-10 Max=6.66D-09 NDo=     1
 LinEq1:  Iter=  7 NonCon=     0 RMS=8.45D-11 Max=7.44D-10 NDo=     1
 Linear equations converged to 1.000D-10 1.000D-09 after     7 iterations.
 End of Minotr F.D. properties file   721 does not exist.
 End of Minotr F.D. properties file   722 does not exist.
 End of Minotr F.D. properties file   788 does not exist.
 Leave Link 1002 at Thu Dec 16 11:32:27 2021, MaxMem=   536870912 cpu:               1.9 elap:               0.5
 (Enter /opt/gaussian/g16/sse4/g16/l701.exe)
 ... and contract with generalized density number  7.
 Compute integral first derivatives.
 Leave Link  701 at Thu Dec 16 11:32:27 2021, MaxMem=   536870912 cpu:               0.5 elap:               0.1
 (Enter /opt/gaussian/g16/sse4/g16/l702.exe)
 L702 exits ... SP integral derivatives will be done elsewhere.
 Leave Link  702 at Thu Dec 16 11:32:27 2021, MaxMem=   536870912 cpu:               0.1 elap:               0.1
 (Enter /opt/gaussian/g16/sse4/g16/l703.exe)
 Integral derivatives from FoFJK, PRISM(SPDF).
 Compute integral first derivatives, UseDBF=F ICtDFT=           0.
 Calling FoFJK, ICntrl=  10002127 FMM=F ISym2X=0 I1Cent= 0 IOpClX= 0 NMat=1 NMatS=1 NMatT=0.
 FoFJK:  IHMeth= 1 ICntrl=10002127 DoSepK=F KAlg= 0 I1Cent=           0 FoldK=F
 IRaf=         0 NMat=       1 IRICut=       1 DoRegI=T DoRafI=F ISym2E= 0 IDoP0=0 IntGTp=1.
 FoFCou: FMM=F IPFlag=           0 FMFlag=      100000 FMFlg1=         800
         NFxFlg=           0 DoJE=F BraDBF=F KetDBF=F FulRan=T
         wScrn=  0.000000 ICntrl=  10002127 IOpCl=  0 I1Cent=           0 NGrid=           0
         NMat0=    1 NMatS0=      1 NMatT0=    0 NMatD0=    1 NMtDS0=    0 NMtDT0=    0
 Symmetry not used in FoFCou.
 Leave Link  703 at Thu Dec 16 11:32:28 2021, MaxMem=   536870912 cpu:               0.8 elap:               0.2
 (Enter /opt/gaussian/g16/sse4/g16/l716.exe)
 Dipole        =-2.72688477D-07-1.62969047D-07 1.59179133D-07
 ***** Axes restored to original set *****
 -------------------------------------------------------------------
 Center     Atomic                   Forces (Hartrees/Bohr)
 Number     Number              X              Y              Z
 -------------------------------------------------------------------
      1        6           0.000000012   -0.000000083    0.000000174
      2        1          -0.000405142    0.000000042   -0.000000194
      3        1           0.000134922    0.000258101   -0.000281579
      4        1           0.000135175    0.000114723    0.000364421
      5        1           0.000135033   -0.000372783   -0.000082821
 -------------------------------------------------------------------
 Cartesian Forces:  Max     0.000405142 RMS     0.000209212
 Leave Link  716 at Thu Dec 16 11:32:28 2021, MaxMem=   536870912 cpu:               0.1 elap:               0.0
 (Enter /opt/gaussian/g16/sse4/g16/l103.exe)

 GradGradGradGradGradGradGradGradGradGradGradGradGradGradGradGradGradGrad
 Berny optimization.
 Using GEDIIS/GDIIS optimizer.
 FormGI is forming the generalized inverse of G from B-inverse, IUseBI=4.
 Internal  Forces:  Max     0.000405261 RMS     0.000216555
 Search for a local minimum.
 Step number   2 out of a maximum of   24
 All quantities printed in internal units (Hartrees-Bohrs-Radians)
 RMS Force = .21655D-03 SwitMx=.10000D-02 MixMth= 2
 Mixed Optimization -- En-DIIS/RFO-DIIS
 Update second derivatives using D2CorX and points    1    2
 DE= -2.80D-04 DEPred=-3.01D-04 R= 9.31D-01
 TightC=F SS=  1.41D+00  RLast= 4.17D-02 DXNew= 5.0454D-01 1.2499D-01
 Trust test= 9.31D-01 RLast= 4.17D-02 DXMaxT set to 3.00D-01
 The second derivative matrix:
                          R1        R2        R3        R4        A1
           R1           0.35061
           R2           0.00501   0.35060
           R3           0.00501   0.00501   0.35062
           R4           0.00501   0.00501   0.00501   0.35060
           A1          -0.00001  -0.00001  -0.00001  -0.00001   0.16000
           A2           0.00000   0.00000   0.00000   0.00000   0.00000
           A3           0.00000   0.00000   0.00000   0.00000   0.00000
           A4           0.00000   0.00000   0.00000   0.00000   0.00000
           A5          -0.00000  -0.00000  -0.00000  -0.00000   0.00000
           A6           0.00000   0.00000   0.00000   0.00000  -0.00000
           D1           0.00000   0.00000   0.00000   0.00000   0.00000
           D2          -0.00000  -0.00000  -0.00000  -0.00000  -0.00000
           D3          -0.00000  -0.00000  -0.00000  -0.00000  -0.00000
           D4          -0.00000  -0.00000  -0.00000  -0.00000  -0.00000
                          A2        A3        A4        A5        A6
           A2           0.16000
           A3          -0.00000   0.16000
           A4          -0.00000  -0.00000   0.16000
           A5          -0.00000  -0.00000  -0.00000   0.16000
           A6           0.00000   0.00000   0.00000  -0.00000   0.16000
           D1          -0.00000  -0.00000  -0.00000  -0.00000   0.00000
           D2           0.00000   0.00000   0.00000   0.00000  -0.00000
           D3           0.00000   0.00000   0.00000   0.00000  -0.00000
           D4           0.00000   0.00000   0.00000   0.00000  -0.00000
                          D1        D2        D3        D4
           D1           0.00230
           D2          -0.00000   0.00230
           D3          -0.00000   0.00000   0.00230
           D4          -0.00000   0.00000   0.00000   0.00230
 ITU=  1  0
 Use linear search instead of GDIIS.
     Eigenvalues ---    0.05082   0.05715   0.08641   0.16000   0.16000
     Eigenvalues ---    0.34559   0.34560   0.34560   0.36565
 RFO step:  Lambda= 0.00000000D+00 EMin= 5.08230832D-02
 Quartic linear search produced a step of -0.05477.
 Iteration  1 RMS(Cart)=  0.00060985 RMS(Int)=  0.00000000
 Iteration  2 RMS(Cart)=  0.00000000 RMS(Int)=  0.00000000
 ITry= 1 IFail=0 DXMaxC= 1.14D-03 DCOld= 1.00D+10 DXMaxT= 3.00D-01 DXLimC= 3.00D+00 Rises=F
 Variable       Old X    -DE/DX   Delta X   Delta X   Delta X     New X
                                 (Linear)    (Quad)   (Total)
    R1        2.08479  -0.00041  -0.00114  -0.00000  -0.00114   2.08365
    R2        2.08479  -0.00041  -0.00114  -0.00000  -0.00114   2.08365
    R3        2.08479  -0.00041  -0.00114   0.00000  -0.00114   2.08365
    R4        2.08479  -0.00041  -0.00114  -0.00000  -0.00114   2.08365
    A1        1.91063   0.00000  -0.00000   0.00000   0.00000   1.91063
    A2        1.91064  -0.00000   0.00000  -0.00000  -0.00000   1.91063
    A3        1.91063  -0.00000   0.00000  -0.00000   0.00000   1.91063
    A4        1.91063  -0.00000   0.00000  -0.00000  -0.00000   1.91063
    A5        1.91063   0.00000   0.00000   0.00000   0.00000   1.91063
    A6        1.91063   0.00000  -0.00000   0.00000   0.00000   1.91063
    D1        2.09439   0.00000  -0.00000   0.00000   0.00000   2.09439
    D2       -2.09439  -0.00000   0.00000  -0.00000  -0.00000  -2.09439
    D3        2.09440  -0.00000   0.00000  -0.00000  -0.00000   2.09440
    D4       -2.09440   0.00000  -0.00000   0.00000   0.00000  -2.09440
         Item               Value     Threshold  Converged?
 Maximum Force            0.000405     0.000450     YES
 RMS     Force            0.000217     0.000300     YES
 Maximum Displacement     0.001141     0.001800     YES
 RMS     Displacement     0.000610     0.001200     YES
 Predicted change in Energy=-8.969958D-07
 Optimization completed.
    -- Stationary point found.
                           ----------------------------
                           !   Optimized Parameters   !
                           ! (Angstroms and Degrees)  !
 --------------------------                            --------------------------
 ! Name  Definition              Value          Derivative Info.                !
 --------------------------------------------------------------------------------
 ! R1    R(1,2)                  1.1032         -DE/DX =   -0.0004              !
 ! R2    R(1,3)                  1.1032         -DE/DX =   -0.0004              !
 ! R3    R(1,4)                  1.1032         -DE/DX =   -0.0004              !
 ! R4    R(1,5)                  1.1032         -DE/DX =   -0.0004              !
 ! A1    A(2,1,3)              109.4711         -DE/DX =    0.0                 !
 ! A2    A(2,1,4)              109.4713         -DE/DX =    0.0                 !
 ! A3    A(2,1,5)              109.4712         -DE/DX =    0.0                 !
 ! A4    A(3,1,4)              109.4713         -DE/DX =    0.0                 !
 ! A5    A(3,1,5)              109.4712         -DE/DX =    0.0                 !
 ! A6    A(4,1,5)              109.4712         -DE/DX =    0.0                 !
 ! D1    D(2,1,4,3)            120.0            -DE/DX =    0.0                 !
 ! D2    D(2,1,5,3)           -119.9998         -DE/DX =    0.0                 !
 ! D3    D(2,1,5,4)            120.0001         -DE/DX =    0.0                 !
 ! D4    D(3,1,5,4)           -120.0            -DE/DX =    0.0                 !
 --------------------------------------------------------------------------------
 Lowest energy point so far.  Saving SCF results.
 Largest change from initial coordinates is atom    5       1.538 Angstoms.
 GradGradGradGradGradGradGradGradGradGradGradGradGradGradGradGradGradGrad

 Leave Link  103 at Thu Dec 16 11:32:28 2021, MaxMem=   536870912 cpu:               0.0 elap:               0.0
 (Enter /opt/gaussian/g16/sse4/g16/l202.exe)
                          Input orientation:                          
 ---------------------------------------------------------------------
 Center     Atomic      Atomic             Coordinates (Angstroms)
 Number     Number       Type             X           Y           Z
 ---------------------------------------------------------------------
      1          6           0        1.018250    0.093150    0.031471
      2          1           0        2.121474    0.093152    0.031469
      3          1           0        0.650514   -0.609822    0.798090
      4          1           0        0.650505   -0.219274   -0.960626
      5          1           0        0.650507    1.108544    0.256956
 ---------------------------------------------------------------------
                    Distance matrix (angstroms):
                    1          2          3          4          5
     1  C    0.000000
     2  H    1.103224   0.000000
     3  H    1.103224   1.801556   0.000000
     4  H    1.103224   1.801558   1.801557   0.000000
     5  H    1.103224   1.801557   1.801556   1.801557   0.000000
 Stoichiometry    CH4
 Framework group  C1[X(CH4)]
 Deg. of freedom     9
 Full point group                 C1      NOp   1
 RotChk:  IX=0 Diff= 6.77D-10
 Largest Abelian subgroup         C1      NOp   1
 Largest concise Abelian subgroup C1      NOp   1
                         Standard orientation:                         
 ---------------------------------------------------------------------
 Center     Atomic      Atomic             Coordinates (Angstroms)
 Number     Number       Type             X           Y           Z
 ---------------------------------------------------------------------
      1          6           0        0.000000    0.000000   -0.000000
      2          1           0       -0.689577    0.378956   -0.773291
      3          1           0       -0.414327    0.215185    0.999565
      4          1           0        0.979925    0.495516   -0.106366
      5          1           0        0.123977   -1.089658   -0.119907
 ---------------------------------------------------------------------
 Rotational constants (GHZ):         154.5028484         154.5026674         154.5025946
 Leave Link  202 at Thu Dec 16 11:32:28 2021, MaxMem=   536870912 cpu:               0.0 elap:               0.0
 (Enter /opt/gaussian/g16/sse4/g16/l601.exe)
 Copying SCF densities to generalized density rwf, IOpCl= 0 IROHF=0.

 **********************************************************************

            Population analysis using the SCF density.

 **********************************************************************

 Orbital symmetries:
       Occupied  (A) (A) (A) (A) (A)
       Virtual   (A) (A) (A) (A) (A) (A) (A) (A) (A) (A) (A) (A)
                 (A) (A) (A) (A) (A) (A) (A) (A) (A) (A) (A) (A)
                 (A) (A) (A) (A) (A)
 The electronic state is 1-A.
 Alpha  occ. eigenvalues --  -11.22229  -0.93657  -0.53926  -0.53926  -0.53926
 Alpha virt. eigenvalues --    0.19132   0.27194   0.27194   0.27194   0.59025
 Alpha virt. eigenvalues --    0.59025   0.59025   0.88275   0.88275   0.88275
 Alpha virt. eigenvalues --    0.91785   1.12975   1.12975   1.25439   1.67533
 Alpha virt. eigenvalues --    1.67533   1.67533   1.88024   1.88024   1.88024
 Alpha virt. eigenvalues --    2.19854   2.19854   2.19855   2.52166   2.52167
 Alpha virt. eigenvalues --    2.71050   2.76600   2.76600   2.76600
          Condensed to atoms (all electrons):
               1          2          3          4          5
     1  C    4.506726   0.413081   0.413081   0.413081   0.413081
     2  H    0.413081   0.614089  -0.022311  -0.022311  -0.022311
     3  H    0.413081  -0.022311   0.614089  -0.022311  -0.022311
     4  H    0.413081  -0.022311  -0.022311   0.614089  -0.022311
     5  H    0.413081  -0.022311  -0.022311  -0.022311   0.614089
 Mulliken charges:
               1
     1  C   -0.159048
     2  H    0.039762
     3  H    0.039762
     4  H    0.039762
     5  H    0.039762
 Sum of Mulliken charges =  -0.00000
 Mulliken charges with hydrogens summed into heavy atoms:
               1
     1  C   -0.000000
 Electronic spatial extent (au):  <R**2>=             36.1196
 Charge=             -0.0000 electrons
 Dipole moment (field-independent basis, Debye):
    X=             -0.0000    Y=             -0.0000    Z=              0.0000  Tot=              0.0000
 Quadrupole moment (field-independent basis, Debye-Ang):
   XX=             -8.3994   YY=             -8.3994   ZZ=             -8.3994
   XY=              0.0000   XZ=              0.0000   YZ=             -0.0000
 Traceless Quadrupole moment (field-independent basis, Debye-Ang):
   XX=              0.0000   YY=             -0.0000   ZZ=             -0.0000
   XY=              0.0000   XZ=              0.0000   YZ=             -0.0000
 Octapole moment (field-independent basis, Debye-Ang**2):
  XXX=              0.3530  YYY=             -0.7191  ZZZ=              0.3462  XYY=              0.1750
  XXY=              0.4390  XXZ=             -0.1948  XZZ=             -0.5280  YZZ=              0.2801
  YYZ=             -0.1514  XYZ=              0.0503
 Hexadecapole moment (field-independent basis, Debye-Ang**3):
[...]
     Eigenvalues --    11.68096  11.68097  11.68098
           X            1.00000  -0.00000   0.00000
           Y            0.00000   1.00000   0.00000
           Z           -0.00000  -0.00000   1.00000
 This molecule is an asymmetric top.
 Rotational symmetry number  1.
 Rotational temperatures (Kelvin)      7.41497     7.41496     7.41496
 Rotational constants (GHZ):         154.50285   154.50267   154.50259
 Zero-point vibrational energy     118061.3 (Joules/Mol)
                                   28.21733 (Kcal/Mol)
 Vibrational temperatures:   1932.74  1932.75  1932.75  2241.51  2241.52
          (Kelvin)           4386.73  4577.01  4577.01  4577.02
 
 Zero-point correction=                           0.044967 (Hartree/Particle)
 Thermal correction to Energy=                    0.047836
 Thermal correction to Enthalpy=                  0.048780
 Thermal correction to Gibbs Free Energy=         0.025271
 Sum of electronic and zero-point Energies=            -40.338881
 Sum of electronic and thermal Energies=               -40.336013
 Sum of electronic and thermal Enthalpies=             -40.335068
 Sum of electronic and thermal Free Energies=          -40.358577
 
                     E (Thermal)             CV                S
                      KCal/Mol        Cal/Mol-Kelvin    Cal/Mol-Kelvin
 Total                   30.017              6.469             49.478
 Electronic               0.000              0.000              0.000
 Translational            0.889              2.981             34.261
 Rotational               0.889              2.981             15.130
 Vibrational             28.240              0.507              0.087
                       Q            Log10(Q)             Ln(Q)
 Total Bot       0.237679D-11        -11.624009        -26.765270
 Total V=0       0.114667D+10          9.059438         20.860127
 Vib (Bot)       0.208459D-20        -20.680980        -47.619716
 Vib (V=0)       0.100570D+01          0.002467          0.005681
 Electronic      0.100000D+01          0.000000          0.000000
 Translational   0.252294D+07          6.401907         14.740936
 Rotational      0.451922D+03          2.655064          6.113510
 
                                                             Methane.xyz
                                                             IR Spectrum
 
      3    3                                                          1        1                                                     
      1    0                                                          5        3                                                     
      8    4                                                          5        4                                                     
      1    9                                                          8        3                                                     
 
      X                                                                        X                                                     
      X                                                                        X                                                     
      X                                                                        X                                                     
      X                                                                        X                                                     
      X                                                                        X                                                     
      X                                                                        X                                                     
      X                                                                        X                                                     
      X                                                                        X                                                     
      X                                                                                                                              
      X                                                                                                                              
      X                                                                                                                              
      X                                                                                                                              
      X                                                                                                                              
      X                                                                                                                              
      X                                                                                                                              
      X                                                                                                                              
      X                                                                                                                              
      X                                                                                                                              
      X                                                                                                                              
      X                                                                                                                              
 
 ***** Axes restored to original set *****
 -------------------------------------------------------------------
 Center     Atomic                   Forces (Hartrees/Bohr)
 Number     Number              X              Y              Z
 -------------------------------------------------------------------
      1        6           0.000000012   -0.000000083    0.000000174
      2        1          -0.000405142    0.000000042   -0.000000194
      3        1           0.000134922    0.000258101   -0.000281579
      4        1           0.000135175    0.000114723    0.000364421
      5        1           0.000135033   -0.000372783   -0.000082821
 -------------------------------------------------------------------
 Cartesian Forces:  Max     0.000405142 RMS     0.000209212
 Force constants in Cartesian coordinates: 
                1             2             3             4             5 
      1  0.557921D+00
      2  0.000000D+00  0.557922D+00
      3  0.000000D+00  0.000000D+00  0.557922D+00
      4 -0.326887D+00  0.000000D+00 -0.307199D-05  0.351436D+00
      5  0.000000D+00 -0.457775D-01  0.000000D+00  0.000000D+00  0.447912D-01
      6  0.000000D+00  0.000000D+00 -0.457773D-01  0.000000D+00  0.000000D+00
      7 -0.770099D-01 -0.597064D-01  0.651134D-01 -0.818392D-02 -0.211558D-01
      8 -0.597044D-01 -0.159913D+00  0.124472D+00  0.121081D-02  0.162689D-03
      9  0.651101D-01  0.124469D+00 -0.181519D+00 -0.132459D-02 -0.191247D-02
     10 -0.770114D-01 -0.265364D-01 -0.842633D-01 -0.818398D-02 -0.940232D-02
     11 -0.265354D-01 -0.683218D-01 -0.715874D-01  0.538915D-03 -0.124467D-02
     12 -0.842620D-01 -0.715888D-01 -0.273103D+00  0.171197D-02  0.110010D-02
     13 -0.770114D-01  0.862431D-01  0.191529D-01 -0.818414D-02  0.305581D-01
     14  0.862405D-01 -0.283908D+00 -0.528843D-01 -0.175222D-02  0.206811D-02
     15  0.191510D-01 -0.528806D-01 -0.575216D-01 -0.389084D-03  0.812455D-03
                6             7             8             9            10 
      6  0.447910D-01
      7  0.230712D-01  0.788621D-01
      8 -0.191251D-02  0.651311D-01  0.169299D+00
      9  0.494608D-03 -0.710267D-01 -0.135777D+00  0.192859D+00
     10 -0.298569D-01  0.316624D-02  0.449737D-02  0.107862D-01  0.788636D-01
     11  0.109994D-02  0.863925D-02  0.667718D-02  0.191289D-01  0.289470D-01
     12  0.190214D-02 -0.786881D-02 -0.789338D-02 -0.173676D-01  0.919198D-01
     13  0.678587D-02  0.316628D-02 -0.111332D-01 -0.354684D-02  0.316637D-02
     14  0.812631D-03  0.709244D-02 -0.162240D-01 -0.590989D-02  0.249499D-02
     15 -0.141062D-02 -0.928711D-02  0.211153D-01  0.552883D-02  0.114161D-01
               11            12            13            14            15 
     11  0.693836D-01
     12  0.780924D-01  0.292772D+00
     13 -0.115890D-01 -0.149852D-02  0.788636D-01
     14 -0.649390D-02  0.291519D-03 -0.940783D-01  0.304556D+00
     15 -0.267323D-01 -0.419920D-02 -0.208915D-01  0.576847D-01  0.576013D-01
 FormGI is forming the generalized inverse of G from B-inverse, IUseBI=4.
 Force constants in internal coordinates: 
                1             2             3             4             5 
      1  0.351438D+00
      2  0.103679D-02  0.351438D+00
      3  0.103504D-02  0.103490D-02  0.351434D+00
      4  0.103675D-02  0.103660D-02  0.103487D-02  0.351439D+00
      5  0.191080D-02  0.191082D-02 -0.120034D-02 -0.262255D-02  0.198531D-01
      6  0.299549D-02 -0.772570D-03  0.333368D-02 -0.555513D-02 -0.879460D-02
      7  0.585199D-02 -0.469868D-02 -0.520105D-02  0.404329D-02 -0.131519D-01
      8 -0.773737D-03  0.299430D-02  0.333259D-02 -0.555631D-02 -0.879462D-02
      9 -0.469658D-02  0.585410D-02 -0.519901D-02  0.404545D-02 -0.131520D-01
     10 -0.528796D-02 -0.528796D-02  0.493412D-02  0.564525D-02  0.240400D-01
     11  0.370079D-02  0.370080D-02  0.261213D-02 -0.100163D-01  0.135438D-01
     12 -0.304777D-02 -0.304781D-02  0.783880D-02 -0.174135D-02 -0.820727D-02
     13  0.401411D-02 -0.706176D-02  0.391945D-02 -0.870607D-03 -0.410360D-02
     14  0.706188D-02 -0.401395D-02 -0.391935D-02  0.870743D-03  0.410367D-02
                6             7             8             9            10 
      6  0.374443D-01
      7 -0.227467D-01  0.731521D-01
      8 -0.205776D-02  0.249201D-01  0.374443D-01
      9  0.249201D-01 -0.354448D-01 -0.227467D-01  0.731522D-01
     10 -0.287653D-01 -0.267288D-01 -0.287653D-01 -0.267287D-01  0.869481D-01
     11  0.108986D-01 -0.147768D-01  0.108987D-01 -0.147769D-01 -0.578743D-02
     12  0.944019D-02 -0.698309D-02  0.944025D-02 -0.698312D-02  0.329300D-02
     13  0.143151D-01  0.569541D-03 -0.487494D-02 -0.755267D-02  0.164653D-02
     14  0.487492D-02  0.755263D-02 -0.143152D-01 -0.569545D-03 -0.164647D-02
               11            12            13            14 
     11  0.299359D-01
     12  0.151008D-02  0.186043D-01
     13  0.755039D-03  0.930212D-02  0.188894D-01
     14 -0.755041D-03 -0.930217D-02  0.958731D-02  0.188895D-01
 Leave Link  716 at Thu Dec 16 11:38:25 2021, MaxMem=   536870912 cpu:               0.1 elap:               0.1
 (Enter /opt/gaussian/g16/sse4/g16/l103.exe)

 GradGradGradGradGradGradGradGradGradGradGradGradGradGradGradGradGradGrad
 Berny optimization.
 Red2BG is reusing G-inverse.
 Internal  Forces:  Max     0.000405261 RMS     0.000216555
 Search for a local minimum.
 Step number   1 out of a maximum of    2
 All quantities printed in internal units (Hartrees-Bohrs-Radians)
 Second derivative matrix not updated -- analytic derivatives used.
 The second derivative matrix:
                          R1        R2        R3        R4        A1
           R1           0.35144
           R2           0.00104   0.35144
           R3           0.00104   0.00103   0.35143
           R4           0.00104   0.00104   0.00103   0.35144
           A1           0.00191   0.00191  -0.00120  -0.00262   0.01985
           A2           0.00300  -0.00077   0.00333  -0.00556  -0.00879
           A3           0.00585  -0.00470  -0.00520   0.00404  -0.01315
           A4          -0.00077   0.00299   0.00333  -0.00556  -0.00879
           A5          -0.00470   0.00585  -0.00520   0.00405  -0.01315
           A6          -0.00529  -0.00529   0.00493   0.00565   0.02404
           D1           0.00370   0.00370   0.00261  -0.01002   0.01354
           D2          -0.00305  -0.00305   0.00784  -0.00174  -0.00821
           D3           0.00401  -0.00706   0.00392  -0.00087  -0.00410
           D4           0.00706  -0.00401  -0.00392   0.00087   0.00410
                          A2        A3        A4        A5        A6
           A2           0.03744
           A3          -0.02275   0.07315
           A4          -0.00206   0.02492   0.03744
           A5           0.02492  -0.03544  -0.02275   0.07315
           A6          -0.02877  -0.02673  -0.02877  -0.02673   0.08695
           D1           0.01090  -0.01478   0.01090  -0.01478  -0.00579
           D2           0.00944  -0.00698   0.00944  -0.00698   0.00329
           D3           0.01432   0.00057  -0.00487  -0.00755   0.00165
           D4           0.00487   0.00755  -0.01432  -0.00057  -0.00165
                          D1        D2        D3        D4
           D1           0.02994
           D2           0.00151   0.01860
           D3           0.00076   0.00930   0.01889
           D4          -0.00076  -0.00930   0.00959   0.01889
 ITU=  0
     Eigenvalues ---    0.03817   0.04301   0.06537   0.13218   0.13269
     Eigenvalues ---    0.35127   0.35128   0.35155   0.35454
 Angle between quadratic step and forces=   0.10 degrees.
 Linear search not attempted -- first point.
 Iteration  1 RMS(Cart)=  0.00061080 RMS(Int)=  0.00000000
 Iteration  2 RMS(Cart)=  0.00000000 RMS(Int)=  0.00000000
 ITry= 1 IFail=0 DXMaxC= 1.14D-03 DCOld= 1.00D+10 DXMaxT= 3.00D-01 DXLimC= 3.00D+00 Rises=F
 Variable       Old X    -DE/DX   Delta X   Delta X   Delta X     New X
                                 (Linear)    (Quad)   (Total)
    R1        2.08479  -0.00041   0.00000  -0.00114  -0.00114   2.08365
    R2        2.08479  -0.00041   0.00000  -0.00114  -0.00114   2.08365
    R3        2.08479  -0.00041   0.00000  -0.00114  -0.00114   2.08365
    R4        2.08479  -0.00041   0.00000  -0.00114  -0.00114   2.08365
    A1        1.91063   0.00000   0.00000   0.00000   0.00000   1.91063
    A2        1.91064  -0.00000   0.00000  -0.00000  -0.00000   1.91063
    A3        1.91063  -0.00000   0.00000  -0.00000  -0.00000   1.91063
    A4        1.91063  -0.00000   0.00000  -0.00000  -0.00000   1.91063
    A5        1.91063   0.00000   0.00000   0.00000   0.00000   1.91063
    A6        1.91063   0.00000   0.00000  -0.00000  -0.00000   1.91063
    D1        2.09439   0.00000   0.00000   0.00000   0.00000   2.09440
    D2       -2.09439  -0.00000   0.00000  -0.00000  -0.00000  -2.09440
    D3        2.09440  -0.00000   0.00000  -0.00000  -0.00000   2.09440
    D4       -2.09440   0.00000   0.00000   0.00000   0.00000  -2.09440
         Item               Value     Threshold  Converged?
 Maximum Force            0.000405     0.000450     YES
 RMS     Force            0.000217     0.000300     YES
 Maximum Displacement     0.001143     0.001800     YES
 RMS     Displacement     0.000611     0.001200     YES
 Predicted change in Energy=-9.258967D-07
 Optimization completed.
    -- Stationary point found.
                           ----------------------------
                           !   Optimized Parameters   !
                           ! (Angstroms and Degrees)  !
 --------------------------                            --------------------------
 ! Name  Definition              Value          Derivative Info.                !
 --------------------------------------------------------------------------------
 ! R1    R(1,2)                  1.1032         -DE/DX =   -0.0004              !
 ! R2    R(1,3)                  1.1032         -DE/DX =   -0.0004              !
 ! R3    R(1,4)                  1.1032         -DE/DX =   -0.0004              !
 ! R4    R(1,5)                  1.1032         -DE/DX =   -0.0004              !
 ! A1    A(2,1,3)              109.4711         -DE/DX =    0.0                 !
 ! A2    A(2,1,4)              109.4713         -DE/DX =    0.0                 !
 ! A3    A(2,1,5)              109.4712         -DE/DX =    0.0                 !
 ! A4    A(3,1,4)              109.4713         -DE/DX =    0.0                 !
 ! A5    A(3,1,5)              109.4712         -DE/DX =    0.0                 !
 ! A6    A(4,1,5)              109.4712         -DE/DX =    0.0                 !
 ! D1    D(2,1,4,3)            120.0            -DE/DX =    0.0                 !
 ! D2    D(2,1,5,3)           -119.9998         -DE/DX =    0.0                 !
 ! D3    D(2,1,5,4)            120.0001         -DE/DX =    0.0                 !
 ! D4    D(3,1,5,4)           -120.0            -DE/DX =    0.0                 !
 --------------------------------------------------------------------------------
 GradGradGradGradGradGradGradGradGradGradGradGradGradGradGradGradGradGrad

 Leave Link  103 at Thu Dec 16 11:38:26 2021, MaxMem=   536870912 cpu:               0.2 elap:               0.1
 (Enter /opt/gaussian/g16/sse4/g16/l9999.exe)
 1\1\GINC-NODE670\Freq\RCCSD-FC\CC-pVDZ\C1H4\THEOB\16-Dec-2021\0\\#P Ge
 om=AllCheck Guess=TCheck SCRF=Check GenChk RCCSD(FC)/CC-pVDZ Freq\\Met
 hane.xyz\\0,1\C,1.0182499866,0.0931500136,0.0314714326\H,2.1214737909,
 0.0931521774,0.0314690649\H,0.6505137018,-0.609821562,0.7980898014\H,0
 .6505052524,-0.2192744078,-0.9606262422\H,0.6505072682,1.108543779,0.2
 569559433\\Version=ES64L-G16RevA.03\State=1-A\HF=-40.1982992\MP2=-40.3
 601397\MP3=-40.3805048\MP4D=-40.3854611\MP4DQ=-40.3828247\MP4SDQ=-40.3
 833939\CCSD=-40.3838482\RMSD=0.000e+00\RMSF=2.092e-04\ZeroPoint=0.0449
 672\Thermal=0.0478356\Dipole=0.,0.,0.0000004\DipoleDeriv=0.0309858,0.,
 -0.0000003,0.0000001,0.0309859,0.0000002,-0.0000003,0.,0.0309857,-0.13
 6421,-0.0000003,0.0000008,-0.0000008,0.0566003,-0.0000003,0.0000002,-0
 .0000003,0.0566004,0.0351537,-0.0409975,0.0447094,-0.0409968,-0.021770
 7,0.0854658,0.0447089,0.0854663,-0.0366046,0.0351525,-0.0182215,-0.057
 8604,-0.0182212,0.0411202,-0.049156,-0.0578592,-0.0491559,-0.0994936,0
 .0351524,0.0592183,0.0131502,0.0592181,-0.1069109,-0.0363099,0.0131506
 ,-0.0363112,0.0485359\PG=C01 [X(C1H4)]\NImag=0\\0.55792125,-0.00000007
 ,0.55792209,0.00000016,0.00000045,0.55792160,-0.32688747,-0.00000028,-
 0.00000307,0.35143617,-0.00000057,-0.04577750,-0.00000022,0.00000063,0
 .04479122,0.00000066,-0.00000023,-0.04577727,-0.00000077,0.00000015,0.
 04479099,-0.07700989,-0.05970637,0.06511336,-0.00818392,-0.02115579,0.
 02307117,0.07886205,-0.05970444,-0.15991348,0.12447160,0.00121081,0.00
 016269,-0.00191251,0.06513114,0.16929869,0.06511012,0.12446941,-0.1815
 1892,-0.00132459,-0.00191247,0.00049461,-0.07102673,-0.13577731,0.1928
 5897,-0.07701145,-0.02653635,-0.08426333,-0.00818398,-0.00940232,-0.02
 985693,0.00316624,0.00449737,0.01078618,0.07886356,-0.02653542,-0.0683
 2179,-0.07158743,0.00053891,-0.00124467,0.00109994,0.00863925,0.006677
 18,0.01912890,0.02894696,0.06938359,-0.08426203,-0.07158884,-0.2731028
 1,0.00171197,0.00110010,0.00190214,-0.00786881,-0.00789338,-0.01736764
 ,0.09191977,0.07809236,0.29277214,-0.07701137,0.08624313,0.01915294,-0
 .00818414,0.03055807,0.00678587,0.00316628,-0.01113316,-0.00354684,0.0
 0316637,-0.01158897,-0.00149852,0.07886364,0.08624053,-0.28390836,-0.0
 5288430,-0.00175222,0.00206811,0.00081263,0.00709244,-0.01622400,-0.00
 590989,0.00249499,-0.00649390,0.00029152,-0.09407829,0.30455584,0.0191
 5103,-0.05288062,-0.05752161,-0.00038908,0.00081246,-0.00141062,-0.009
 28711,0.02111530,0.00552883,0.01141610,-0.02673228,-0.00419920,-0.0208
 9151,0.05768469,0.05760127\\-0.00000001,0.00000008,-0.00000017,0.00040
 514,-0.00000004,0.00000019,-0.00013492,-0.00025810,0.00028158,-0.00013
 517,-0.00011472,-0.00036442,-0.00013503,0.00037278,0.00008282\\\@


 MISERY NO LONGER LOVES COMPANY.  NOWADAYS IT INSISTS ON IT.

                                              -- BAKER'S LAW
 Job cpu time:       0 days  0 hours  7 minutes  0.5 seconds.
 Elapsed time:       0 days  0 hours  1 minutes 51.4 seconds.
 File lengths (MBytes):  RWF=     58 Int=      0 D2E=      0 Chk=     39 Scr=      1
 Normal termination of Gaussian 16 at Thu Dec 16 11:38:29 2021.
