 Entering Gaussian System, Link 0=/opt/gaussian/g16/sse4/g16/g16
 Initial command:
 /opt/gaussian/g16/sse4/g16/l1.exe "/scratch/1549344/Gau-1127.inp" -scrdir="/scratch/1549344/"
 Entering Link 1 = /opt/gaussian/g16/sse4/g16/l1.exe PID=      1130.
  
 Copyright (c) 1988,1990,1992,1993,1995,1998,2003,2009,2016,
            Gaussian, Inc.  All Rights Reserved.
  
 This is part of the Gaussian(R) 16 program.  It is based on
 the Gaussian(R) 09 system (copyright 2009, Gaussian, Inc.),
 the Gaussian(R) 03 system (copyright 2003, Gaussian, Inc.),
 the Gaussian(R) 98 system (copyright 1998, Gaussian, Inc.),
 the Gaussian(R) 94 system (copyright 1995, Gaussian, Inc.),
 the Gaussian 92(TM) system (copyright 1992, Gaussian, Inc.),
 the Gaussian 90(TM) system (copyright 1990, Gaussian, Inc.),
 the Gaussian 88(TM) system (copyright 1988, Gaussian, Inc.),
 the Gaussian 86(TM) system (copyright 1986, Carnegie Mellon
 University), and the Gaussian 82(TM) system (copyright 1983,
 Carnegie Mellon University). Gaussian is a federally registered
 trademark of Gaussian, Inc.
  
 This software contains proprietary and confidential information,
 including trade secrets, belonging to Gaussian, Inc.
  
 This software is provided under written license and may be
 used, copied, transmitted, or stored only in accord with that
 written license.
  
 The following legend is applicable only to US Government
 contracts under FAR:
  
                    RESTRICTED RIGHTS LEGEND
  
 Use, reproduction and disclosure by the US Government is
 subject to restrictions as set forth in subparagraphs (a)
 and (c) of the Commercial Computer Software - Restricted
 Rights clause in FAR 52.227-19.
  
 Gaussian, Inc.
 340 Quinnipiac St., Bldg. 40, Wallingford CT 06492
  
  
 ---------------------------------------------------------------
 Warning -- This program may not be used in any manner that
 competes with the business of Gaussian, Inc. or will provide
 assistance to any competitor of Gaussian, Inc.  The licensee
 of this program is prohibited from giving any competitor of
 Gaussian, Inc. access to this program.  By using this program,
 the user acknowledges that Gaussian, Inc. is engaged in the
 business of creating and licensing software in the field of
 computational chemistry and represents and warrants to the
 licensee that it is not a competitor of Gaussian, Inc. and that
 it will not use this program in any manner prohibited above.
 ---------------------------------------------------------------
  

 Cite this work as:
 Gaussian 16, Revision A.03,
 M. J. Frisch, G. W. Trucks, H. B. Schlegel, G. E. Scuseria, 
 M. A. Robb, J. R. Cheeseman, G. Scalmani, V. Barone, 
 G. A. Petersson, H. Nakatsuji, X. Li, M. Caricato, A. V. Marenich, 
 J. Bloino, B. G. Janesko, R. Gomperts, B. Mennucci, H. P. Hratchian, 
 J. V. Ortiz, A. F. Izmaylov, J. L. Sonnenberg, D. Williams-Young, 
 F. Ding, F. Lipparini, F. Egidi, J. Goings, B. Peng, A. Petrone, 
 T. Henderson, D. Ranasinghe, V. G. Zakrzewski, J. Gao, N. Rega, 
 G. Zheng, W. Liang, M. Hada, M. Ehara, K. Toyota, R. Fukuda, 
 J. Hasegawa, M. Ishida, T. Nakajima, Y. Honda, O. Kitao, H. Nakai, 
 T. Vreven, K. Throssell, J. A. Montgomery, Jr., J. E. Peralta, 
 F. Ogliaro, M. J. Bearpark, J. J. Heyd, E. N. Brothers, K. N. Kudin, 
 V. N. Staroverov, T. A. Keith, R. Kobayashi, J. Normand, 
 K. Raghavachari, A. P. Rendell, J. C. Burant, S. S. Iyengar, 
 J. Tomasi, M. Cossi, J. M. Millam, M. Klene, C. Adamo, R. Cammi, 
 J. W. Ochterski, R. L. Martin, K. Morokuma, O. Farkas, 
 J. B. Foresman, and D. J. Fox, Gaussian, Inc., Wallingford CT, 2016.
 
 ******************************************
 Gaussian 16:  ES64L-G16RevA.03 25-Dec-2016
                16-Dec-2021 
 ******************************************
 %chk=CCSD_Water_gaus.chk
 %nprocshared=4
 Will use up to    4 processors via shared memory.
 %mem=4GB
 ------------------------------------------------
 #p opt freq ccsd/cc-pvdz geom=connectivity polar
 ------------------------------------------------
 1/18=20,19=15,38=101,57=2/1,3;
 2/9=110,12=2,17=6,18=5,40=1/2;
 3/5=16,11=9,25=1,30=1,71=1/1,2,3;
 4//1;
 5/5=2,38=5,98=1/2;
 8/6=4,9=120000,10=1/1,4;
 9/5=7,15=1/13;
 11/28=-8,29=200,42=3/11;
 10/5=6/2;
 6/7=2,8=2,9=2,10=2/1;
 7/12=7/1,2,3,16;
 1/18=20,19=15,38=100/3(2);
 2/9=110/2;
 99//99;
 2/9=110/2;
 3/5=16,11=9,14=-3,25=1,30=1,71=1/1,2,3;
 4/5=5,16=3,69=1/1;
 5/5=2,38=5,98=1/2;
 8/6=4,9=120000,10=1/1,4;
 9/5=7,15=1/13;
 11/28=-8,29=200,42=3/11;
 10/5=6/2;
 7/12=7/1,2,3,16;
 1/18=20,19=15,38=100/3(-9);
 2/9=110/2;
 6/7=2,8=2,9=2,10=2/1;
 99//99;
 Leave Link    1 at Thu Dec 16 11:32:07 2021, MaxMem=   536870912 cpu:               0.1 elap:               0.0
 (Enter /opt/gaussian/g16/sse4/g16/l101.exe)
 ---------
 Water.xyz
 ---------
 Symbolic Z-matrix:
 Charge =  0 Multiplicity = 1
 O                     0.90644  -0.06978   0.02183 
 H                     1.87433  -0.04844  -0.01941 
 H                     0.62759   0.35671  -0.80237 
 
 ITRead=  0  0  0
 MicOpt= -1 -1 -1
 NAtoms=      3 NQM=        3 NQMF=       0 NMMI=      0 NMMIF=      0
                NMic=       0 NMicF=      0.
                    Isotopes and Nuclear Properties:
 (Nuclear quadrupole moments (NQMom) in fm**2, nuclear magnetic moments (NMagM)
  in nuclear magnetons)

  Atom         1           2           3
 IAtWgt=          16           1           1
 AtmWgt=  15.9949146   1.0078250   1.0078250
 NucSpn=           0           1           1
 AtZEff=  -0.0000000  -0.0000000  -0.0000000
 NQMom=    0.0000000   0.0000000   0.0000000
 NMagM=    0.0000000   2.7928460   2.7928460
 AtZNuc=   8.0000000   1.0000000   1.0000000
 Leave Link  101 at Thu Dec 16 11:32:10 2021, MaxMem=   536870912 cpu:               0.9 elap:               0.2
 (Enter /opt/gaussian/g16/sse4/g16/l103.exe)

 GradGradGradGradGradGradGradGradGradGradGradGradGradGradGradGradGradGrad
 Berny optimization.
 Initialization pass.
                           ----------------------------
                           !    Initial Parameters    !
                           ! (Angstroms and Degrees)  !
 --------------------------                            --------------------------
 ! Name  Definition              Value          Derivative Info.                !
 --------------------------------------------------------------------------------
 ! R1    R(1,2)                  0.969          estimate D2E/DX2                !
 ! R2    R(1,3)                  0.969          estimate D2E/DX2                !
 ! A1    A(2,1,3)              103.978          estimate D2E/DX2                !
 --------------------------------------------------------------------------------
 Trust Radius=3.00D-01 FncErr=1.00D-07 GrdErr=1.00D-07 EigMax=2.50D+02 EigMin=1.00D-04
 Number of steps in this run=     20 maximum allowed number of steps=    100.
 GradGradGradGradGradGradGradGradGradGradGradGradGradGradGradGradGradGrad

 Leave Link  103 at Thu Dec 16 11:32:10 2021, MaxMem=   536870912 cpu:               0.0 elap:               0.0
 (Enter /opt/gaussian/g16/sse4/g16/l202.exe)
                          Input orientation:                          
 ---------------------------------------------------------------------
 Center     Atomic      Atomic             Coordinates (Angstroms)
 Number     Number       Type             X           Y           Z
 ---------------------------------------------------------------------
      1          8           0        0.906440   -0.069780    0.021830
      2          1           0        1.874330   -0.048440   -0.019410
      3          1           0        0.627590    0.356710   -0.802370
 ---------------------------------------------------------------------
                    Distance matrix (angstroms):
                    1          2          3
     1  O    0.000000
     2  H    0.969003   0.000000
     3  H    0.968998   1.526936   0.000000
 Stoichiometry    H2O
 Framework group  CS[SG(H2O)]
 Deg. of freedom     3
 Full point group                 CS      NOp   2
 Largest Abelian subgroup         CS      NOp   2
 Largest concise Abelian subgroup C1      NOp   1
                         Standard orientation:                         
 ---------------------------------------------------------------------
 Center     Atomic      Atomic             Coordinates (Angstroms)
 Number     Number       Type             X           Y           Z
 ---------------------------------------------------------------------
      1          8           0        0.000000    0.119345   -0.000000
      2          1           0        0.763468   -0.477383    0.000000
      3          1           0       -0.763468   -0.477374    0.000000
 ---------------------------------------------------------------------
 Rotational constants (GHZ):         792.8693766         430.1504584         278.8614837
 Leave Link  202 at Thu Dec 16 11:32:10 2021, MaxMem=   536870912 cpu:               0.0 elap:               0.0
 (Enter /opt/gaussian/g16/sse4/g16/l301.exe)
 Standard basis: CC-pVDZ (5D, 7F)
 Ernie: Thresh=  0.10000D-02 Tol=  0.10000D-05 Strict=F.
 Ernie:  2 primitive shells out of 32 were deleted.
 There are    19 symmetry adapted cartesian basis functions of A'  symmetry.
 There are     6 symmetry adapted cartesian basis functions of A"  symmetry.
 There are    18 symmetry adapted basis functions of A'  symmetry.
 There are     6 symmetry adapted basis functions of A"  symmetry.
    24 basis functions,    47 primitive gaussians,    25 cartesian basis functions
     5 alpha electrons        5 beta electrons
       nuclear repulsion energy         9.0842613495 Hartrees.
 IExCor=    0 DFT=F Ex=HF Corr=None ExCW=0 ScaHFX=  1.000000
 ScaDFX=  1.000000  1.000000  1.000000  1.000000 ScalE2=  1.000000  1.000000
 IRadAn=      5 IRanWt=     -1 IRanGd=            0 ICorTp=0 IEmpDi=  4
 NAtoms=    3 NActive=    3 NUniq=    3 SFac= 1.00D+00 NAtFMM=   60 NAOKFM=F Big=F
 Integral buffers will be    131072 words long.
 Raffenetti 1 integral format.
 Two-electron integral symmetry is turned on.
 Leave Link  301 at Thu Dec 16 11:32:10 2021, MaxMem=   536870912 cpu:               0.2 elap:               0.1
 (Enter /opt/gaussian/g16/sse4/g16/l302.exe)
 NPDir=0 NMtPBC=     1 NCelOv=     1 NCel=       1 NClECP=     1 NCelD=      1
         NCelK=      1 NCelE2=     1 NClLst=     1 CellRange=     0.0.
 One-electron integrals computed using PRISM.
 One-electron integral symmetry used in STVInt
 NBasis=    24 RedAO= T EigKep=  3.53D-02  NBF=    18     6
 NBsUse=    24 1.00D-06 EigRej= -1.00D+00 NBFU=    18     6
 Leave Link  302 at Thu Dec 16 11:32:11 2021, MaxMem=   536870912 cpu:               0.5 elap:               0.1
 (Enter /opt/gaussian/g16/sse4/g16/l303.exe)
 DipDrv:  MaxL=1.
 Leave Link  303 at Thu Dec 16 11:32:12 2021, MaxMem=   536870912 cpu:               0.1 elap:               0.0
 (Enter /opt/gaussian/g16/sse4/g16/l401.exe)
 ExpMin= 1.22D-01 ExpMax= 1.17D+04 ExpMxC= 4.01D+02 IAcc=3 IRadAn=         5 AccDes= 0.00D+00
 Harris functional with IExCor=  205 and IRadAn=       5 diagonalized for initial guess.
 HarFok:  IExCor=  205 AccDes= 0.00D+00 IRadAn=         5 IDoV= 1 UseB2=F ITyADJ=14
 ICtDFT=  3500011 ScaDFX=  1.000000  1.000000  1.000000  1.000000
 FoFCou: FMM=F IPFlag=           0 FMFlag=      100000 FMFlg1=           0
         NFxFlg=           0 DoJE=T BraDBF=F KetDBF=T FulRan=T
         wScrn=  0.000000 ICntrl=       500 IOpCl=  0 I1Cent=   200000004 NGrid=           0
         NMat0=    1 NMatS0=      1 NMatT0=    0 NMatD0=    1 NMtDS0=    0 NMtDT0=    0
 Petite list used in FoFCou.
 Harris En= -76.1134539356713    
 JPrj=0 DoOrth=F DoCkMO=F.
 Initial guess orbital symmetries:
       Occupied  (A') (A') (A') (A') (A")
       Virtual   (A') (A') (A') (A') (A") (A') (A') (A') (A") (A")
                 (A') (A') (A') (A') (A") (A") (A') (A') (A')
 The electronic state of the initial guess is 1-A'.
 Leave Link  401 at Thu Dec 16 11:32:12 2021, MaxMem=   536870912 cpu:               0.7 elap:               0.2
 (Enter /opt/gaussian/g16/sse4/g16/l502.exe)
 Keep R1 ints in memory in symmetry-blocked form, NReq=878187.
 FoFCou: FMM=F IPFlag=           0 FMFlag=           0 FMFlg1=           0
         NFxFlg=           0 DoJE=F BraDBF=F KetDBF=F FulRan=T
         wScrn=  0.000000 ICntrl=       600 IOpCl=  0 I1Cent=           0 NGrid=           0
         NMat0=    1 NMatS0=    300 NMatT0=    0 NMatD0=    1 NMtDS0=    0 NMtDT0=    0
 Petite list used in FoFCou.
 Closed shell SCF:
 Using DIIS extrapolation, IDIIS=  1040.
 NGot=   536870912 LenX=   536843682 LenY=   536842616
 Requested convergence on RMS density matrix=1.00D-08 within 128 cycles.
 Requested convergence on MAX density matrix=1.00D-06.
 Requested convergence on             energy=1.00D-06.
 No special actions if energy rises.

 Cycle   1  Pass 1  IDiag  1:
 E= -75.9428653246235    
 DIIS: error= 5.85D-02 at cycle   1 NSaved=   1.
 NSaved= 1 IEnMin= 1 EnMin= -75.9428653246235     IErMin= 1 ErrMin= 5.85D-02
 ErrMax= 5.85D-02  0.00D+00 EMaxC= 1.00D-01 BMatC= 1.23D-01 BMatP= 1.23D-01
 IDIUse=3 WtCom= 4.15D-01 WtEn= 5.85D-01
 Coeff-Com:  0.100D+01
 Coeff-En:   0.100D+01
 Coeff:      0.100D+01
 Gap=     0.555 Goal=   None    Shift=    0.000
 GapD=    0.555 DampG=2.000 DampE=0.500 DampFc=1.0000 IDamp=-1.
 RMSDP=1.17D-02 MaxDP=1.17D-01              OVMax= 1.28D-01

 Cycle   2  Pass 1  IDiag  1:
 E= -75.9990629278351     Delta-E=       -0.056197603212 Rises=F Damp=F
 DIIS: error= 3.84D-02 at cycle   2 NSaved=   2.
 NSaved= 2 IEnMin= 2 EnMin= -75.9990629278351     IErMin= 2 ErrMin= 3.84D-02
 ErrMax= 3.84D-02  0.00D+00 EMaxC= 1.00D-01 BMatC= 3.98D-02 BMatP= 1.23D-01
 IDIUse=3 WtCom= 6.16D-01 WtEn= 3.84D-01
 Coeff-Com:  0.351D+00 0.649D+00
 Coeff-En:   0.100D+00 0.900D+00
 Coeff:      0.255D+00 0.745D+00
 Gap=     0.692 Goal=   None    Shift=    0.000
 RMSDP=5.28D-03 MaxDP=5.48D-02 DE=-5.62D-02 OVMax= 4.73D-02

 Cycle   3  Pass 1  IDiag  1:
 E= -76.0249900030857     Delta-E=       -0.025927075251 Rises=F Damp=F
 DIIS: error= 6.28D-03 at cycle   3 NSaved=   3.
 NSaved= 3 IEnMin= 3 EnMin= -76.0249900030857     IErMin= 3 ErrMin= 6.28D-03
 ErrMax= 6.28D-03  0.00D+00 EMaxC= 1.00D-01 BMatC= 1.29D-03 BMatP= 3.98D-02
 IDIUse=3 WtCom= 9.37D-01 WtEn= 6.28D-02
 Coeff-Com: -0.343D-01 0.109D+00 0.926D+00
 Coeff-En:   0.000D+00 0.000D+00 0.100D+01
 Coeff:     -0.321D-01 0.102D+00 0.930D+00
 Gap=     0.673 Goal=   None    Shift=    0.000
 RMSDP=8.69D-04 MaxDP=9.05D-03 DE=-2.59D-02 OVMax= 1.04D-02

 Cycle   4  Pass 1  IDiag  1:
 E= -76.0259729093494     Delta-E=       -0.000982906264 Rises=F Damp=F
 DIIS: error= 8.31D-04 at cycle   4 NSaved=   4.
 NSaved= 4 IEnMin= 4 EnMin= -76.0259729093494     IErMin= 4 ErrMin= 8.31D-04
 ErrMax= 8.31D-04  0.00D+00 EMaxC= 1.00D-01 BMatC= 1.02D-05 BMatP= 1.29D-03
 IDIUse=3 WtCom= 9.92D-01 WtEn= 8.31D-03
 Coeff-Com:  0.740D-02-0.534D-01-0.294D+00 0.134D+01
 Coeff-En:   0.000D+00 0.000D+00 0.000D+00 0.100D+01
 Coeff:      0.733D-02-0.529D-01-0.291D+00 0.134D+01
 Gap=     0.676 Goal=   None    Shift=    0.000
 RMSDP=1.52D-04 MaxDP=1.59D-03 DE=-9.83D-04 OVMax= 1.80D-03

 Cycle   5  Pass 1  IDiag  1:
 E= -76.0259879078711     Delta-E=       -0.000014998522 Rises=F Damp=F
 DIIS: error= 1.22D-04 at cycle   5 NSaved=   5.
 NSaved= 5 IEnMin= 5 EnMin= -76.0259879078711     IErMin= 5 ErrMin= 1.22D-04
 ErrMax= 1.22D-04  0.00D+00 EMaxC= 1.00D-01 BMatC= 1.84D-07 BMatP= 1.02D-05
 IDIUse=3 WtCom= 9.99D-01 WtEn= 1.22D-03
 Coeff-Com:  0.339D-04 0.338D-02 0.136D-01-0.194D+00 0.118D+01
 Coeff-En:   0.000D+00 0.000D+00 0.000D+00 0.000D+00 0.100D+01
 Coeff:      0.339D-04 0.338D-02 0.136D-01-0.194D+00 0.118D+01
 Gap=     0.676 Goal=   None    Shift=    0.000
 RMSDP=3.18D-05 MaxDP=2.86D-04 DE=-1.50D-05 OVMax= 4.08D-04

 Cycle   6  Pass 1  IDiag  1:
 E= -76.0259883495556     Delta-E=       -0.000000441685 Rises=F Damp=F
 DIIS: error= 2.24D-05 at cycle   6 NSaved=   6.
 NSaved= 6 IEnMin= 6 EnMin= -76.0259883495556     IErMin= 6 ErrMin= 2.24D-05
 ErrMax= 2.24D-05  0.00D+00 EMaxC= 1.00D-01 BMatC= 7.58D-09 BMatP= 1.84D-07
 IDIUse=1 WtCom= 1.00D+00 WtEn= 0.00D+00
 Coeff-Com: -0.289D-03 0.151D-02 0.952D-02-0.232D-01-0.225D+00 0.124D+01
 Coeff:     -0.289D-03 0.151D-02 0.952D-02-0.232D-01-0.225D+00 0.124D+01
 Gap=     0.676 Goal=   None    Shift=    0.000
 RMSDP=7.85D-06 MaxDP=6.22D-05 DE=-4.42D-07 OVMax= 1.04D-04

 Cycle   7  Pass 1  IDiag  1:
 E= -76.0259883697349     Delta-E=       -0.000000020179 Rises=F Damp=F
 DIIS: error= 3.27D-06 at cycle   7 NSaved=   7.
 NSaved= 7 IEnMin= 7 EnMin= -76.0259883697349     IErMin= 7 ErrMin= 3.27D-06
 ErrMax= 3.27D-06  0.00D+00 EMaxC= 1.00D-01 BMatC= 3.21D-10 BMatP= 7.58D-09
 IDIUse=1 WtCom= 1.00D+00 WtEn= 0.00D+00
 Coeff-Com:  0.120D-03-0.770D-03-0.462D-02 0.172D-01 0.627D-01-0.532D+00
 Coeff-Com:  0.146D+01
 Coeff:      0.120D-03-0.770D-03-0.462D-02 0.172D-01 0.627D-01-0.532D+00
 Coeff:      0.146D+01
 Gap=     0.676 Goal=   None    Shift=    0.000
 RMSDP=1.29D-06 MaxDP=1.48D-05 DE=-2.02D-08 OVMax= 1.87D-05

 Cycle   8  Pass 1  IDiag  1:
 E= -76.0259883705699     Delta-E=       -0.000000000835 Rises=F Damp=F
 DIIS: error= 7.16D-07 at cycle   8 NSaved=   8.
 NSaved= 8 IEnMin= 8 EnMin= -76.0259883705699     IErMin= 8 ErrMin= 7.16D-07
 ErrMax= 7.16D-07  0.00D+00 EMaxC= 1.00D-01 BMatC= 8.09D-12 BMatP= 3.21D-10
 IDIUse=1 WtCom= 1.00D+00 WtEn= 0.00D+00
 Coeff-Com: -0.275D-04 0.194D-03 0.115D-02-0.513D-02-0.833D-02 0.115D+00
 Coeff-Com: -0.445D+00 0.134D+01
 Coeff:     -0.275D-04 0.194D-03 0.115D-02-0.513D-02-0.833D-02 0.115D+00
 Coeff:     -0.445D+00 0.134D+01
 Gap=     0.676 Goal=   None    Shift=    0.000
 RMSDP=2.15D-07 MaxDP=1.63D-06 DE=-8.35D-10 OVMax= 2.96D-06

 Cycle   9  Pass 1  IDiag  1:
 E= -76.0259883705907     Delta-E=       -0.000000000021 Rises=F Damp=F
 DIIS: error= 7.75D-08 at cycle   9 NSaved=   9.
 NSaved= 9 IEnMin= 9 EnMin= -76.0259883705907     IErMin= 9 ErrMin= 7.75D-08
 ErrMax= 7.75D-08  0.00D+00 EMaxC= 1.00D-01 BMatC= 1.17D-13 BMatP= 8.09D-12
 IDIUse=1 WtCom= 1.00D+00 WtEn= 0.00D+00
 Coeff-Com:  0.402D-05-0.308D-04-0.183D-03 0.916D-03 0.675D-03-0.177D-01
 Coeff-Com:  0.831D-01-0.358D+00 0.129D+01
 Coeff:      0.402D-05-0.308D-04-0.183D-03 0.916D-03 0.675D-03-0.177D-01
 Coeff:      0.831D-01-0.358D+00 0.129D+01
 Gap=     0.676 Goal=   None    Shift=    0.000
 RMSDP=3.26D-08 MaxDP=2.72D-07 DE=-2.08D-11 OVMax= 4.16D-07

 Cycle  10  Pass 1  IDiag  1:
 E= -76.0259883705910     Delta-E=       -0.000000000000 Rises=F Damp=F
 DIIS: error= 1.02D-08 at cycle  10 NSaved=  10.
 NSaved=10 IEnMin=10 EnMin= -76.0259883705910     IErMin=10 ErrMin= 1.02D-08
 ErrMax= 1.02D-08  0.00D+00 EMaxC= 1.00D-01 BMatC= 2.29D-15 BMatP= 1.17D-13
 IDIUse=1 WtCom= 1.00D+00 WtEn= 0.00D+00
 Coeff-Com: -0.356D-06 0.313D-05 0.191D-04-0.116D-03 0.438D-04 0.176D-02
 Coeff-Com: -0.105D-01 0.524D-01-0.253D+00 0.121D+01
 Coeff:     -0.356D-06 0.313D-05 0.191D-04-0.116D-03 0.438D-04 0.176D-02
 Coeff:     -0.105D-01 0.524D-01-0.253D+00 0.121D+01
 Gap=     0.676 Goal=   None    Shift=    0.000
 RMSDP=3.64D-09 MaxDP=2.27D-08 DE=-2.56D-13 OVMax= 4.30D-08

 SCF Done:  E(RHF) =  -76.0259883706     A.U. after   10 cycles
            NFock= 10  Conv=0.36D-08     -V/T= 2.0011
 KE= 7.594507703678D+01 PE=-1.988974209206D+02 EE= 3.784209416374D+01
 Leave Link  502 at Thu Dec 16 11:32:13 2021, MaxMem=   536870912 cpu:               3.6 elap:               1.2
 (Enter /opt/gaussian/g16/sse4/g16/l801.exe)
 Windowed orbitals will be sorted by symmetry type.
 ExpMin= 1.22D-01 ExpMax= 1.17D+04 ExpMxC= 4.01D+02 IAcc=3 IRadAn=         5 AccDes= 0.00D+00
 HarFok:  IExCor=  205 AccDes= 0.00D+00 IRadAn=         5 IDoV=-2 UseB2=F ITyADJ=14
 ICtDFT= 12500011 ScaDFX=  1.000000  1.000000  1.000000  1.000000
 Largest valence mixing into a core orbital is  6.06D-05
 Largest core mixing into a valence orbital is  1.72D-05
 Range of M.O.s used for correlation:     2    24
 NBasis=    24 NAE=     5 NBE=     5 NFC=     1 NFV=     0
 NROrb=     23 NOA=     4 NOB=     4 NVA=    19 NVB=    19
 Leave Link  801 at Thu Dec 16 11:32:14 2021, MaxMem=   536870912 cpu:               0.2 elap:               0.1
 (Enter /opt/gaussian/g16/sse4/g16/l804.exe)
 Closed-shell transformation, MDV=   536870912 ITran=4 ISComp=2.
 Unit  1 TFree=         20956 TCopy=        126956.
 Semi-Direct transformation.
 ModeAB=           2 MOrb=             4 LenV=     536684719
 LASXX=        10580 LTotXX=       10580 LenRXX=       10580
 LTotAB=       12244 MaxLAS=       29900 LenRXY=       29900
 NonZer=       32384 LenScr=      785920 LnRSAI=           0
 LnScr1=           0 LExtra=           0 Total=       826400
 MaxDsk=          -1 SrtSym=           F ITran=            4
 DoSDTr:  NPSUse=  4
 JobTyp=0 Pass  1:  I=   1 to   4.
 (rs|ai) integrals will be sorted in core.
 Complete sort for first half transformation.
 First half transformation complete.
 Complete sort for second half transformation.
 Second half transformation complete.
 Spin components of T(2) and E(2):
     alpha-alpha T2 =       0.6330156400D-02 E2=     -0.2543092314D-01
     alpha-beta  T2 =       0.3802667493D-01 E2=     -0.1516548338D+00
     beta-beta   T2 =       0.6330156400D-02 E2=     -0.2543092314D-01
 ANorm=    0.1025030237D+01
 E2 =    -0.2025166801D+00 EUMP2 =    -0.76228505050669D+02
 Leave Link  804 at Thu Dec 16 11:32:15 2021, MaxMem=   536870912 cpu:               0.3 elap:               0.1
 (Enter /opt/gaussian/g16/sse4/g16/l913.exe)
 CIDS:  MDV=   536870912.
 Frozen-core window:  NFC=   1 NFV=   0.
 IFCWin=0 IBDFC=1 NFBD=     0     0 NFCmp=     0     0 NFFFC=     0     0
 Using DD3R+UMP44R for 1st iteration.
 Using DD4RQ for 2nd and later iterations.
 Keep R2 and R3 ints in memory in symmetry-blocked form, NReq=884495.
 FoFCou: FMM=F IPFlag=           0 FMFlag=           0 FMFlg1=           0
         NFxFlg=           0 DoJE=F BraDBF=F KetDBF=F FulRan=T
         wScrn=  0.000000 ICntrl=       600 IOpCl=  0 I1Cent=           0 NGrid=           0
         NMat0=    1 NMatS0=    300 NMatT0=    0 NMatD0=    1 NMtDS0=    0 NMtDT0=    0
 Petite list used in FoFCou.
 CIDS: In Core Option IDoMem=           1.
 Coupled Cluster theory with single and double substitutions
 ===========================================================
 Iterations=  50 Convergence= 0.100D-07
 Produce multiple copies of IABC intergrals
 Iteration Nr.   1
 **********************
 DD1Dir will call FoFMem   1 times, MxPair=        20
 NAB=    10 NAA=     0 NBB=     0.
 MP4(R+Q)=  0.18239426D-02
 Maximum subspace dimension=  5
 A-vector RMS=  3.9516882D-03 Max=  6.1492034D-03 conv= 1.00D-06.
 RLE energy=       -0.2077065037
 E3=       -0.68917925D-02        EUMP3=      -0.76235396843D+02
 E4(DQ)=   -0.16409460D-02        UMP4(DQ)=   -0.76237037789D+02
 E4(SDQ)=  -0.23500727D-02        UMP4(SDQ)=  -0.76237746916D+02
 VARIATIONAL ENERGIES WITH THE FIRST-ORDER WAVEFUNCTION:
 DE(Corr)= -0.20757683     E(Corr)=     -76.233565200    
 NORM(A)=   0.10265389D+01
 Iteration Nr.   2
 **********************
 DD1Dir will call FoFMem   1 times, MxPair=        20
 NAB=    10 NAA=     0 NBB=     0.
 A-vector RMS=  7.2243453D-04 Max=  1.8937311D-03 conv= 1.00D-06.
 RLE energy=       -0.2118518953
 DE(Corr)= -0.21095168     E(CORR)=     -76.236940056     Delta=-3.37D-03
 NORM(A)=   0.10282021D+01
 Iteration Nr.   3
 **********************
 DD1Dir will call FoFMem   1 times, MxPair=        20
 NAB=    10 NAA=     0 NBB=     0.
 A-vector RMS=  3.3951625D-04 Max=  9.0787270D-04 conv= 1.00D-06.
 RLE energy=       -0.2120603345
 DE(Corr)= -0.21185700     E(CORR)=     -76.237845368     Delta=-9.05D-04
 NORM(A)=   0.10284445D+01
 Iteration Nr.   4
 **********************
 DD1Dir will call FoFMem   1 times, MxPair=        20
 NAB=    10 NAA=     0 NBB=     0.
 A-vector RMS=  6.2647677D-05 Max=  1.3004662D-04 conv= 1.00D-06.
 RLE energy=       -0.2120851257
 DE(Corr)= -0.21207207     E(CORR)=     -76.238060437     Delta=-2.15D-04
 NORM(A)=   0.10284821D+01
 Iteration Nr.   5
 **********************
 DD1Dir will call FoFMem   1 times, MxPair=        20
 NAB=    10 NAA=     0 NBB=     0.
 A-vector RMS=  3.5676606D-05 Max=  1.3513470D-04 conv= 1.00D-06.
 RLE energy=       -0.2120859127
 DE(Corr)= -0.21208426     E(CORR)=     -76.238072626     Delta=-1.22D-05
 NORM(A)=   0.10284867D+01
 Iteration Nr.   6
 **********************
 DD1Dir will call FoFMem   1 times, MxPair=        20
 NAB=    10 NAA=     0 NBB=     0.
 A-vector RMS=  1.1244725D-05 Max=  4.1748959D-05 conv= 1.00D-06.
 RLE energy=       -0.2120846056
 DE(Corr)= -0.21208521     E(CORR)=     -76.238073583     Delta=-9.57D-07
 NORM(A)=   0.10284876D+01
 Iteration Nr.   7
 **********************
 DD1Dir will call FoFMem   1 times, MxPair=        20
 NAB=    10 NAA=     0 NBB=     0.
 A-vector RMS=  3.1952013D-06 Max=  1.2264629D-05 conv= 1.00D-06.
 RLE energy=       -0.2120853405
 DE(Corr)= -0.21208505     E(CORR)=     -76.238073420     Delta= 1.62D-07
 NORM(A)=   0.10284882D+01
 Iteration Nr.   8
 **********************
 DD1Dir will call FoFMem   1 times, MxPair=        20
 NAB=    10 NAA=     0 NBB=     0.
 A-vector RMS=  5.1153834D-07 Max=  1.7057088D-06 conv= 1.00D-06.
 RLE energy=       -0.2120851130
 DE(Corr)= -0.21208510     E(CORR)=     -76.238073472     Delta=-5.10D-08
 NORM(A)=   0.10284883D+01
 Iteration Nr.   9
 **********************
 DD1Dir will call FoFMem   1 times, MxPair=        20
 NAB=    10 NAA=     0 NBB=     0.
 A-vector RMS=  9.7841547D-08 Max=  3.1302255D-07 conv= 1.00D-06.
 RLE energy=       -0.2120850967
 DE(Corr)= -0.21208510     E(CORR)=     -76.238073466     Delta= 5.24D-09
 NORM(A)=   0.10284883D+01
 CI/CC converged in    9 iterations to DelEn= 5.24D-09 Conv= 1.00D-08 ErrA1= 9.78D-08 Conv= 1.00D-06
 Wavefunction amplitudes converged. E(Corr)=     -76.238073466    
 Largest amplitude= 5.15D-02

 Z-amplitude iterations

 Iteration Nr.   1
 **********************
 DD1Dir will call FoFMem   1 times, MxPair=        20
 NAB=    10 NAA=     0 NBB=     0.
 A-vector RMS=  8.9803740D-04 Max=  1.7680384D-03 conv= 1.00D-06.
 RLE energy=       -0.2120975428
 DE(Z)= -0.20933332     E(Z)=     -76.235321690     Delta= 2.75D-03
 NORM(A)=   0.10284919D+01
 Iteration Nr.   2
 **********************
 DD1Dir will call FoFMem   1 times, MxPair=        20
 NAB=    10 NAA=     0 NBB=     0.
 A-vector RMS=  9.0171328D-04 Max=  1.7755412D-03 conv= 1.00D-06.
 RLE energy=       -0.2120349825
 DE(Z)= -0.20933484     E(Z)=     -76.235323215     Delta=-1.53D-06
 NORM(A)=   0.10284728D+01
 Iteration Nr.   3
 **********************
 DD1Dir will call FoFMem   1 times, MxPair=        20
 NAB=    10 NAA=     0 NBB=     0.
 A-vector RMS=  8.8441606D-04 Max=  1.7417217D-03 conv= 1.00D-06.
 RLE energy=       -0.2120388616
 DE(Z)= -0.20932739     E(Z)=     -76.235315764     Delta= 7.45D-06
 NORM(A)=   0.10284738D+01
 Iteration Nr.   4
 **********************
 DD1Dir will call FoFMem   1 times, MxPair=        20
 NAB=    10 NAA=     0 NBB=     0.
 A-vector RMS=  8.8483272D-04 Max=  1.7419084D-03 conv= 1.00D-06.
 RLE energy=       -0.2119686557
 DE(Z)= -0.20932774     E(Z)=     -76.235316109     Delta=-3.44D-07
 NORM(A)=   0.10284516D+01
 Iteration Nr.   5
 **********************
 DD1Dir will call FoFMem   1 times, MxPair=        20
 NAB=    10 NAA=     0 NBB=     0.
 A-vector RMS=  8.6466481D-04 Max=  1.7021622D-03 conv= 1.00D-06.
 RLE energy=       -0.2089556173
 DE(Z)= -0.20931925     E(Z)=     -76.235307623     Delta= 8.49D-06
 NORM(A)=   0.10275290D+01
 Iteration Nr.   6
 **********************
 DD1Dir will call FoFMem   1 times, MxPair=        20
 NAB=    10 NAA=     0 NBB=     0.
 A-vector RMS=  1.1823306D-06 Max=  2.9114585D-06 conv= 1.00D-06.
 RLE energy=       -0.2089556257
 DE(Z)= -0.20895562     E(Z)=     -76.234943988     Delta= 3.64D-04
 NORM(A)=   0.10275290D+01
 Iteration Nr.   7
 **********************
 DD1Dir will call FoFMem   1 times, MxPair=        20
 NAB=    10 NAA=     0 NBB=     0.
 A-vector RMS=  4.2331909D-07 Max=  1.2566028D-06 conv= 1.00D-06.
 RLE energy=       -0.2089556779
 DE(Z)= -0.20895565     E(Z)=     -76.234944024     Delta=-3.54D-08
 NORM(A)=   0.10275290D+01
 Iteration Nr.   8
 **********************
 DD1Dir will call FoFMem   1 times, MxPair=        20
 NAB=    10 NAA=     0 NBB=     0.
 A-vector RMS=  4.7556366D-08 Max=  1.1670810D-07 conv= 1.00D-06.
 RLE energy=       -0.2089556544
 DE(Z)= -0.20895566     E(Z)=     -76.234944027     Delta=-3.38D-09
 NORM(A)=   0.10275289D+01
 CI/CC converged in    8 iterations to DelEn=-3.38D-09 Conv= 1.00D-08 ErrA1= 4.76D-08 Conv= 1.00D-06
 Z-amplitudes converged.
 Discarding MO integrals.
 Leave Link  913 at Thu Dec 16 11:32:16 2021, MaxMem=   536870912 cpu:               2.1 elap:               0.7
 (Enter /opt/gaussian/g16/sse4/g16/l1111.exe)
 Unit  1 TFree=         45222 TCopy=         10837.
 Selected functions:
 Compute CCSD 2PDM.
 Form Post-SCF non-separable gradient here.
 IO1PDM=    0 IOW=    0 IO2PDM=    0.
 MDV=     536870912.
 Frozen-core window:  NFC=   1 NFV=   0.
 Leave Link 1111 at Thu Dec 16 11:32:17 2021, MaxMem=   536870912 cpu:               1.6 elap:               0.4
 (Enter /opt/gaussian/g16/sse4/g16/l1002.exe)
 Minotr:  Closed shell wavefunction.
          Computing CCSD/QCISD derivatives.
          Using Z-Vector for PSCF gradient.
          Skipping F1 and S1 gradient terms here.
          IDoAtm=111
          Frozen-core window.
          Direct CPHF calculation.
          Differentiating once with respect to electric field.
                with respect to dipole field.
          Differentiating once with respect to nuclear coordinates.
          Using symmetry in CPHF.
          Requested convergence is 1.0D-10 RMS, and 1.0D-09 maximum.
          NewPWx=F KeepS1=T KeepF1=T KeepIn=T MapXYZ=F SortEE=F KeepMc=T.
 Keep R1 ints in memory in symmetry-blocked form, NReq=878721.
 FoFCou: FMM=F IPFlag=           0 FMFlag=           0 FMFlg1=           0
         NFxFlg=           0 DoJE=F BraDBF=F KetDBF=F FulRan=T
         wScrn=  0.000000 ICntrl=       600 IOpCl=  0 I1Cent=           0 NGrid=           0
         NMat0=    1 NMatS0=    300 NMatT0=    0 NMatD0=    1 NMtDS0=    0 NMtDT0=    0
 Petite list used in FoFCou.
          MDV=     536870912 using IRadAn=       5.
          Solving linear equations separately, MaxMat=       0.
          There are     1 degrees of freedom in the 1st order CPHF.  IDoFFX=0 NUNeed=     1.
 LinEq1:  Iter=  0 NonCon=     1 RMS=4.68D-03 Max=2.08D-02 NDo=     1
 AX will form     1 AO Fock derivatives at one time.
 LinEq1:  Iter=  1 NonCon=     1 RMS=3.60D-04 Max=1.95D-03 NDo=     1
 LinEq1:  Iter=  2 NonCon=     1 RMS=1.23D-04 Max=6.14D-04 NDo=     1
 LinEq1:  Iter=  3 NonCon=     1 RMS=3.95D-05 Max=2.42D-04 NDo=     1
 LinEq1:  Iter=  4 NonCon=     1 RMS=6.44D-06 Max=2.36D-05 NDo=     1
 LinEq1:  Iter=  5 NonCon=     1 RMS=8.50D-07 Max=4.74D-06 NDo=     1
 LinEq1:  Iter=  6 NonCon=     1 RMS=7.89D-08 Max=3.54D-07 NDo=     1
 LinEq1:  Iter=  7 NonCon=     1 RMS=7.05D-09 Max=3.24D-08 NDo=     1
 LinEq1:  Iter=  8 NonCon=     1 RMS=5.22D-10 Max=1.94D-09 NDo=     1
 LinEq1:  Iter=  9 NonCon=     0 RMS=4.81D-11 Max=1.82D-10 NDo=     1
 Linear equations converged to 1.000D-10 1.000D-09 after     9 iterations.
 End of Minotr F.D. properties file   721 does not exist.
 End of Minotr F.D. properties file   722 does not exist.
 End of Minotr F.D. properties file   788 does not exist.
 Leave Link 1002 at Thu Dec 16 11:32:18 2021, MaxMem=   536870912 cpu:               1.9 elap:               0.6
 (Enter /opt/gaussian/g16/sse4/g16/l601.exe)
 Copying SCF densities to generalized density rwf, IOpCl= 0 IROHF=0.

 **********************************************************************

            Population analysis using the SCF density.

 **********************************************************************

 Orbital symmetries:
       Occupied  (A') (A') (A') (A') (A")
       Virtual   (A') (A') (A') (A') (A') (A") (A') (A') (A") (A")
                 (A') (A') (A') (A') (A") (A") (A') (A') (A')
 The electronic state is 1-A'.
 Alpha  occ. eigenvalues --  -20.55279  -1.33122  -0.69205  -0.56549  -0.49252
 Alpha virt. eigenvalues --    0.18347   0.25455   0.77919   0.84577   1.16471
 Alpha virt. eigenvalues --    1.20003   1.25462   1.44163   1.47499   1.66961
 Alpha virt. eigenvalues --    1.86871   1.92515   2.42395   2.46216   3.27806
 Alpha virt. eigenvalues --    3.32541   3.49720   3.84927   4.13712
          Condensed to atoms (all electrons):
               1          2          3
     1  O    7.595734   0.361281   0.361283
     2  H    0.361281   0.512891  -0.033322
     3  H    0.361283  -0.033322   0.512892
 Mulliken charges:
               1
     1  O   -0.318298
     2  H    0.159150
     3  H    0.159148
 Sum of Mulliken charges =  -0.00000
 Mulliken charges with hydrogens summed into heavy atoms:
               1
     1  O   -0.000000
 Electronic spatial extent (au):  <R**2>=             18.8780
 Charge=             -0.0000 electrons
 Dipole moment (field-independent basis, Debye):
    X=             -0.0000    Y=             -2.0756    Z=              0.0000  Tot=              2.0756
 Quadrupole moment (field-independent basis, Debye-Ang):
   XX=             -4.1204   YY=             -5.8756   ZZ=             -7.0596
   XY=             -0.0000   XZ=              0.0000   YZ=              0.0000
 Traceless Quadrupole moment (field-independent basis, Debye-Ang):
   XX=              1.5648   YY=             -0.1904   ZZ=             -1.3744
   XY=             -0.0000   XZ=              0.0000   YZ=              0.0000
 Octapole moment (field-independent basis, Debye-Ang**2):
  XXX=             -0.0000  YYY=             -1.2048  ZZZ=              0.0000  XYY=              0.0000
  XXY=             -1.3272  XXZ=              0.0000  XZZ=             -0.0000  YZZ=             -0.2929
  YYZ=              0.0000  XYZ=             -0.0000
 Hexadecapole moment (field-independent basis, Debye-Ang**3):
 XXXX=             -5.6061 YYYY=             -5.9100 ZZZZ=             -4.8821 XXXY=              0.0000
 XXXZ=             -0.0000 YYYX=              0.0000 YYYZ=              0.0000 ZZZX=             -0.0000
 ZZZY=              0.0000 XXYY=             -1.5282 XXZZ=             -2.0535 YYZZ=             -1.8602
 XXYZ=              0.0000 YYXZ=             -0.0000 ZZXY=              0.0000
 N-N= 9.084261349486D+00 E-N=-1.988974210644D+02  KE= 7.594507703678D+01
 Symmetry A'   KE= 7.138483815041D+01
 Symmetry A"   KE= 4.560238886365D+00
 No NMR shielding tensors so no spin-rotation constants.
 Leave Link  601 at Thu Dec 16 11:32:18 2021, MaxMem=   536870912 cpu:               0.4 elap:               0.2
 (Enter /opt/gaussian/g16/sse4/g16/l701.exe)
 ... and contract with generalized density number  7.
 Compute integral first derivatives.
 Leave Link  701 at Thu Dec 16 11:32:19 2021, MaxMem=   536870912 cpu:               0.5 elap:               0.1
 (Enter /opt/gaussian/g16/sse4/g16/l702.exe)
 L702 exits ... SP integral derivatives will be done elsewhere.
 Leave Link  702 at Thu Dec 16 11:32:19 2021, MaxMem=   536870912 cpu:               0.1 elap:               0.0
 (Enter /opt/gaussian/g16/sse4/g16/l703.exe)
 Integral derivatives from FoFJK, PRISM(SPDF).
 Compute integral first derivatives, UseDBF=F ICtDFT=           0.
 Calling FoFJK, ICntrl=  10002127 FMM=F ISym2X=1 I1Cent= 0 IOpClX= 0 NMat=1 NMatS=1 NMatT=0.
 FoFJK:  IHMeth= 1 ICntrl=10002127 DoSepK=F KAlg= 0 I1Cent=           0 FoldK=F
 IRaf=         0 NMat=       1 IRICut=       1 DoRegI=T DoRafI=F ISym2E= 1 IDoP0=0 IntGTp=1.
 FoFCou: FMM=F IPFlag=           0 FMFlag=      100000 FMFlg1=         800
         NFxFlg=           0 DoJE=F BraDBF=F KetDBF=F FulRan=T
         wScrn=  0.000000 ICntrl=  10002127 IOpCl=  0 I1Cent=           0 NGrid=           0
         NMat0=    1 NMatS0=      1 NMatT0=    0 NMatD0=    1 NMtDS0=    0 NMtDT0=    0
 Petite list used in FoFCou.
 Leave Link  703 at Thu Dec 16 11:32:19 2021, MaxMem=   536870912 cpu:               0.7 elap:               0.2
 (Enter /opt/gaussian/g16/sse4/g16/l716.exe)
 Dipole        =-1.74157313D-06-7.71400839D-01 1.14562926D-16
 ***** Axes restored to original set *****
 -------------------------------------------------------------------
 Center     Atomic                   Forces (Hartrees/Bohr)
 Number     Number              X              Y              Z
 -------------------------------------------------------------------
      1        8           0.000756986    0.000488544   -0.000944121
      2        1          -0.005297356    0.001353246   -0.002615174
      3        1           0.004540370   -0.001841790    0.003559295
 -------------------------------------------------------------------
 Cartesian Forces:  Max     0.005297356 RMS     0.002888890
 Leave Link  716 at Thu Dec 16 11:32:19 2021, MaxMem=   536870912 cpu:               0.1 elap:               0.0
 (Enter /opt/gaussian/g16/sse4/g16/l103.exe)

 GradGradGradGradGradGradGradGradGradGradGradGradGradGradGradGradGradGrad
 Berny optimization.
 FormGI is forming the generalized inverse of G from B-inverse, IUseBI=4.
 Internal  Forces:  Max     0.005850563 RMS     0.005391994
 Search for a local minimum.
 Step number   1 out of a maximum of   20
 All quantities printed in internal units (Hartrees-Bohrs-Radians)
 RMS Force = .53920D-02 SwitMx=.10000D-02 MixMth= 1
 Mixed Optimization -- RFO/linear search
 Second derivative matrix not updated -- first step.
 The second derivative matrix:
                          R1        R2        A1
           R1           0.53581
           R2           0.00000   0.53582
           A1           0.00000   0.00000   0.16000
 ITU=  0
     Eigenvalues ---    0.16000   0.53581   0.53582
 RFO step:  Lambda=-3.12355549D-04 EMin= 1.60000000D-01
 Linear search not attempted -- first point.
 Iteration  1 RMS(Cart)=  0.02489112 RMS(Int)=  0.00027198
 Iteration  2 RMS(Cart)=  0.00019188 RMS(Int)=  0.00000002
 Iteration  3 RMS(Cart)=  0.00000002 RMS(Int)=  0.00000000
 ITry= 1 IFail=0 DXMaxC= 2.69D-02 DCOld= 1.00D+10 DXMaxT= 3.00D-01 DXLimC= 3.00D+00 Rises=F
 ClnCor:  largest displacement from symmetrization is 1.81D-16 for atom     2.
 Variable       Old X    -DE/DX   Delta X   Delta X   Delta X     New X
                                 (Linear)    (Quad)   (Total)
    R1        1.83115  -0.00515   0.00000  -0.00961  -0.00961   1.82154
    R2        1.83114  -0.00514   0.00000  -0.00960  -0.00960   1.82154
    A1        1.81476  -0.00585   0.00000  -0.03649  -0.03649   1.77826
         Item               Value     Threshold  Converged?
 Maximum Force            0.005851     0.000450     NO 
 RMS     Force            0.005392     0.000300     NO 
 Maximum Displacement     0.026948     0.001800     NO 
 RMS     Displacement     0.024950     0.001200     NO 
 Predicted change in Energy=-1.564149D-04
 Lowest energy point so far.  Saving SCF results.
 GradGradGradGradGradGradGradGradGradGradGradGradGradGradGradGradGradGrad

 Leave Link  103 at Thu Dec 16 11:32:19 2021, MaxMem=   536870912 cpu:               0.0 elap:               0.0
 (Enter /opt/gaussian/g16/sse4/g16/l202.exe)
                          Input orientation:                          
 ---------------------------------------------------------------------
 Center     Atomic      Atomic             Coordinates (Angstroms)
 Number     Number       Type             X           Y           Z
 ---------------------------------------------------------------------
      1          8           0        0.902350   -0.072440    0.026970
      2          1           0        1.864159   -0.043141   -0.029651
      3          1           0        0.641851    0.354071   -0.797269
 ---------------------------------------------------------------------
                    Distance matrix (angstroms):
                    1          2          3
     1  O    0.000000
     2  H    0.963920   0.000000
     3  H    0.963920   1.497015   0.000000
 Stoichiometry    H2O
 Framework group  CS[SG(H2O)]
 Deg. of freedom     3
 Full point group                 CS      NOp   2
 RotChk:  IX=0 Diff= 6.89D-06
 Largest Abelian subgroup         CS      NOp   2
 Largest concise Abelian subgroup C1      NOp   1
                         Standard orientation:                         
 ---------------------------------------------------------------------
 Center     Atomic      Atomic             Coordinates (Angstroms)
 Number     Number       Type             X           Y           Z
 ---------------------------------------------------------------------
      1          8           0        0.000000    0.121471   -0.000000
      2          1           0        0.748508   -0.485882    0.000000
      3          1           0       -0.748508   -0.485883    0.000000
 ---------------------------------------------------------------------
 Rotational constants (GHZ):         765.3585773         447.5171019         282.3958451
 Leave Link  202 at Thu Dec 16 11:32:20 2021, MaxMem=   536870912 cpu:               0.0 elap:               0.0
 (Enter /opt/gaussian/g16/sse4/g16/l301.exe)
 Standard basis: CC-pVDZ (5D, 7F)
 Ernie: Thresh=  0.10000D-02 Tol=  0.10000D-05 Strict=F.
 Ernie:  2 primitive shells out of 32 were deleted.
 There are    19 symmetry adapted cartesian basis functions of A'  symmetry.
 There are     6 symmetry adapted cartesian basis functions of A"  symmetry.
 There are    18 symmetry adapted basis functions of A'  symmetry.
 There are     6 symmetry adapted basis functions of A"  symmetry.
    24 basis functions,    47 primitive gaussians,    25 cartesian basis functions
     5 alpha electrons        5 beta electrons
       nuclear repulsion energy         9.1372430573 Hartrees.
 IExCor=    0 DFT=F Ex=HF Corr=None ExCW=0 ScaHFX=  1.000000
 ScaDFX=  1.000000  1.000000  1.000000  1.000000 ScalE2=  1.000000  1.000000
 IRadAn=      5 IRanWt=     -1 IRanGd=            0 ICorTp=0 IEmpDi=  4
 NAtoms=    3 NActive=    3 NUniq=    3 SFac= 1.00D+00 NAtFMM=   60 NAOKFM=F Big=F
 Integral buffers will be    131072 words long.
 Raffenetti 1 integral format.
 Two-electron integral symmetry is turned on.
 Leave Link  301 at Thu Dec 16 11:32:20 2021, MaxMem=   536870912 cpu:               0.2 elap:               0.1
 (Enter /opt/gaussian/g16/sse4/g16/l302.exe)
 NPDir=0 NMtPBC=     1 NCelOv=     1 NCel=       1 NClECP=     1 NCelD=      1
         NCelK=      1 NCelE2=     1 NClLst=     1 CellRange=     0.0.
 One-electron integrals computed using PRISM.
 One-electron integral symmetry used in STVInt
 NBasis=    24 RedAO= T EigKep=  3.47D-02  NBF=    18     6
 NBsUse=    24 1.00D-06 EigRej= -1.00D+00 NBFU=    18     6
 Leave Link  302 at Thu Dec 16 11:32:20 2021, MaxMem=   536870912 cpu:               0.5 elap:               0.1
 (Enter /opt/gaussian/g16/sse4/g16/l303.exe)
 DipDrv:  MaxL=1.
 Leave Link  303 at Thu Dec 16 11:32:20 2021, MaxMem=   536870912 cpu:               0.1 elap:               0.1
 (Enter /opt/gaussian/g16/sse4/g16/l401.exe)
 Initial guess from the checkpoint file:  "CCSD_Water_gaus.chk"
 B after Tr=     0.000000    0.000000    0.000000
         Rot=    1.000000    0.000000   -0.000000   -0.000002 Ang=  -0.00 deg.
 Guess basis will be translated and rotated to current coordinates.
 JPrj=2 DoOrth=T DoCkMO=T.
 Initial guess orbital symmetries:
       Occupied  (A') (A') (A') (A') (A")
       Virtual   (A') (A') (A') (A') (A') (A") (A') (A') (A") (A")
                 (A') (A') (A') (A') (A") (A") (A') (A') (A')
 The electronic state of the initial guess is 1-A'.
 Generating alternative initial guess.
 ExpMin= 1.22D-01 ExpMax= 1.17D+04 ExpMxC= 4.01D+02 IAcc=2 IRadAn=         4 AccDes= 0.00D+00
 Harris functional with IExCor=  205 and IRadAn=       4 diagonalized for initial guess.
 HarFok:  IExCor=  205 AccDes= 0.00D+00 IRadAn=         4 IDoV= 1 UseB2=F ITyADJ=14
 ICtDFT=  3500011 ScaDFX=  1.000000  1.000000  1.000000  1.000000
 FoFCou: FMM=F IPFlag=           0 FMFlag=      100000 FMFlg1=           0
         NFxFlg=           0 DoJE=T BraDBF=F KetDBF=T FulRan=T
         wScrn=  0.000000 ICntrl=       500 IOpCl=  0 I1Cent=   200000004 NGrid=           0
         NMat0=    1 NMatS0=      1 NMatT0=    0 NMatD0=    1 NMtDS0=    0 NMtDT0=    0
 Petite list used in FoFCou.
 Harris En= -76.1134568741821    
 Leave Link  401 at Thu Dec 16 11:32:21 2021, MaxMem=   536870912 cpu:               0.9 elap:               0.2
 (Enter /opt/gaussian/g16/sse4/g16/l502.exe)
 Keep R1 ints in memory in symmetry-blocked form, NReq=878187.
 FoFCou: FMM=F IPFlag=           0 FMFlag=           0 FMFlg1=           0
         NFxFlg=           0 DoJE=F BraDBF=F KetDBF=F FulRan=T
         wScrn=  0.000000 ICntrl=       600 IOpCl=  0 I1Cent=           0 NGrid=           0
         NMat0=    1 NMatS0=    300 NMatT0=    0 NMatD0=    1 NMtDS0=    0 NMtDT0=    0
 Petite list used in FoFCou.
 Closed shell SCF:
 Using DIIS extrapolation, IDIIS=  1040.
 NGot=   536870912 LenX=   536843682 LenY=   536842616
 Requested convergence on RMS density matrix=1.00D-08 within 128 cycles.
 Requested convergence on MAX density matrix=1.00D-06.
 Requested convergence on             energy=1.00D-06.
 No special actions if energy rises.

 Cycle   1  Pass 1  IDiag  1:
 E= -76.0261943425829    
 DIIS: error= 1.81D-03 at cycle   1 NSaved=   1.
 NSaved= 1 IEnMin= 1 EnMin= -76.0261943425829     IErMin= 1 ErrMin= 1.81D-03
 ErrMax= 1.81D-03  0.00D+00 EMaxC= 1.00D-01 BMatC= 8.35D-05 BMatP= 8.35D-05
 IDIUse=3 WtCom= 9.82D-01 WtEn= 1.81D-02
 Coeff-Com:  0.100D+01
 Coeff-En:   0.100D+01
 Coeff:      0.100D+01
 Gap=     0.678 Goal=   None    Shift=    0.000
 GapD=    0.678 DampG=2.000 DampE=1.000 DampFc=2.0000 IDamp=-1.
 RMSDP=4.84D-04 MaxDP=3.49D-03              OVMax= 2.99D-03

 Cycle   2  Pass 1  IDiag  1:
 E= -76.0262785019008     Delta-E=       -0.000084159318 Rises=F Damp=F
 DIIS: error= 2.69D-04 at cycle   2 NSaved=   2.
 NSaved= 2 IEnMin= 2 EnMin= -76.0262785019008     IErMin= 2 ErrMin= 2.69D-04
 ErrMax= 2.69D-04  0.00D+00 EMaxC= 1.00D-01 BMatC= 2.77D-06 BMatP= 8.35D-05
 IDIUse=3 WtCom= 9.97D-01 WtEn= 2.69D-03
 Coeff-Com: -0.171D+00 0.117D+01
 Coeff-En:   0.000D+00 0.100D+01
 Coeff:     -0.171D+00 0.117D+01
 Gap=     0.677 Goal=   None    Shift=    0.000
 RMSDP=1.05D-04 MaxDP=8.00D-04 DE=-8.42D-05 OVMax= 7.81D-04

 Cycle   3  Pass 1  IDiag  1:
 E= -76.0262818260719     Delta-E=       -0.000003324171 Rises=F Damp=F
 DIIS: error= 8.37D-05 at cycle   3 NSaved=   3.
 NSaved= 3 IEnMin= 3 EnMin= -76.0262818260719     IErMin= 3 ErrMin= 8.37D-05
 ErrMax= 8.37D-05  0.00D+00 EMaxC= 1.00D-01 BMatC= 1.80D-07 BMatP= 2.77D-06
 IDIUse=1 WtCom= 1.00D+00 WtEn= 0.00D+00
 Coeff-Com: -0.511D-01 0.274D+00 0.777D+00
 Coeff:     -0.511D-01 0.274D+00 0.777D+00
 Gap=     0.678 Goal=   None    Shift=    0.000
 RMSDP=1.25D-05 MaxDP=1.13D-04 DE=-3.32D-06 OVMax= 1.17D-04

 Cycle   4  Pass 1  IDiag  1:
 E= -76.0262819547609     Delta-E=       -0.000000128689 Rises=F Damp=F
 DIIS: error= 1.78D-05 at cycle   4 NSaved=   4.
 NSaved= 4 IEnMin= 4 EnMin= -76.0262819547609     IErMin= 4 ErrMin= 1.78D-05
 ErrMax= 1.78D-05  0.00D+00 EMaxC= 1.00D-01 BMatC= 8.80D-09 BMatP= 1.80D-07
 IDIUse=1 WtCom= 1.00D+00 WtEn= 0.00D+00
 Coeff-Com:  0.747D-02-0.621D-01 0.818D-01 0.973D+00
 Coeff:      0.747D-02-0.621D-01 0.818D-01 0.973D+00
 Gap=     0.678 Goal=   None    Shift=    0.000
 RMSDP=3.62D-06 MaxDP=2.35D-05 DE=-1.29D-07 OVMax= 3.70D-05

 Cycle   5  Pass 1  IDiag  1:
 E= -76.0262819635252     Delta-E=       -0.000000008764 Rises=F Damp=F
 DIIS: error= 2.60D-06 at cycle   5 NSaved=   5.
 NSaved= 5 IEnMin= 5 EnMin= -76.0262819635252     IErMin= 5 ErrMin= 2.60D-06
 ErrMax= 2.60D-06  0.00D+00 EMaxC= 1.00D-01 BMatC= 1.72D-10 BMatP= 8.80D-09
 IDIUse=1 WtCom= 1.00D+00 WtEn= 0.00D+00
 Coeff-Com:  0.141D-02-0.647D-02-0.307D-01-0.345D-02 0.104D+01
 Coeff:      0.141D-02-0.647D-02-0.307D-01-0.345D-02 0.104D+01
 Gap=     0.678 Goal=   None    Shift=    0.000
 RMSDP=5.64D-07 MaxDP=3.80D-06 DE=-8.76D-09 OVMax= 6.09D-06

 Cycle   6  Pass 1  IDiag  1:
 E= -76.0262819637401     Delta-E=       -0.000000000215 Rises=F Damp=F
 DIIS: error= 5.79D-07 at cycle   6 NSaved=   6.
 NSaved= 6 IEnMin= 6 EnMin= -76.0262819637401     IErMin= 6 ErrMin= 5.79D-07
 ErrMax= 5.79D-07  0.00D+00 EMaxC= 1.00D-01 BMatC= 6.56D-12 BMatP= 1.72D-10
 IDIUse=1 WtCom= 1.00D+00 WtEn= 0.00D+00
 Coeff-Com: -0.611D-03 0.336D-02 0.641D-02-0.136D-01-0.351D+00 0.136D+01
 Coeff:     -0.611D-03 0.336D-02 0.641D-02-0.136D-01-0.351D+00 0.136D+01
 Gap=     0.678 Goal=   None    Shift=    0.000
 RMSDP=1.83D-07 MaxDP=1.35D-06 DE=-2.15D-10 OVMax= 2.16D-06

 Cycle   7  Pass 1  IDiag  1:
 E= -76.0262819637542     Delta-E=       -0.000000000014 Rises=F Damp=F
 DIIS: error= 1.15D-07 at cycle   7 NSaved=   7.
 NSaved= 7 IEnMin= 7 EnMin= -76.0262819637542     IErMin= 7 ErrMin= 1.15D-07
 ErrMax= 1.15D-07  0.00D+00 EMaxC= 1.00D-01 BMatC= 1.64D-13 BMatP= 6.56D-12
 IDIUse=1 WtCom= 1.00D+00 WtEn= 0.00D+00
 Coeff-Com:  0.163D-03-0.920D-03-0.158D-02 0.538D-02 0.867D-01-0.444D+00
 Coeff-Com:  0.135D+01
 Coeff:      0.163D-03-0.920D-03-0.158D-02 0.538D-02 0.867D-01-0.444D+00
 Coeff:      0.135D+01
 Gap=     0.678 Goal=   None    Shift=    0.000
 RMSDP=3.19D-08 MaxDP=2.98D-07 DE=-1.41D-11 OVMax= 4.51D-07

 Cycle   8  Pass 1  IDiag  1:
 E= -76.0262819637547     Delta-E=       -0.000000000000 Rises=F Damp=F
 DIIS: error= 1.12D-08 at cycle   8 NSaved=   8.
 NSaved= 8 IEnMin= 8 EnMin= -76.0262819637547     IErMin= 8 ErrMin= 1.12D-08
 ErrMax= 1.12D-08  0.00D+00 EMaxC= 1.00D-01 BMatC= 3.33D-15 BMatP= 1.64D-13
 IDIUse=1 WtCom= 1.00D+00 WtEn= 0.00D+00
 Coeff-Com: -0.382D-04 0.217D-03 0.374D-03-0.145D-02-0.194D-01 0.107D+00
 Coeff-Com: -0.401D+00 0.131D+01
 Coeff:     -0.382D-04 0.217D-03 0.374D-03-0.145D-02-0.194D-01 0.107D+00
 Coeff:     -0.401D+00 0.131D+01
 Gap=     0.678 Goal=   None    Shift=    0.000
 RMSDP=4.22D-09 MaxDP=4.19D-08 DE=-4.41D-13 OVMax= 6.33D-08

 SCF Done:  E(RHF) =  -76.0262819638     A.U. after    8 cycles
            NFock=  8  Conv=0.42D-08     -V/T= 2.0008
 KE= 7.596721855302D+01 PE=-1.990072057782D+02 EE= 3.787646220410D+01
 Leave Link  502 at Thu Dec 16 11:32:21 2021, MaxMem=   536870912 cpu:               0.9 elap:               0.3
 (Enter /opt/gaussian/g16/sse4/g16/l801.exe)
 Windowed orbitals will be sorted by symmetry type.
 ExpMin= 1.22D-01 ExpMax= 1.17D+04 ExpMxC= 4.01D+02 IAcc=3 IRadAn=         5 AccDes= 0.00D+00
 HarFok:  IExCor=  205 AccDes= 0.00D+00 IRadAn=         5 IDoV=-2 UseB2=F ITyADJ=14
 ICtDFT= 12500011 ScaDFX=  1.000000  1.000000  1.000000  1.000000
 Largest valence mixing into a core orbital is  6.05D-05
 Largest core mixing into a valence orbital is  1.71D-05
 Range of M.O.s used for correlation:     2    24
 NBasis=    24 NAE=     5 NBE=     5 NFC=     1 NFV=     0
 NROrb=     23 NOA=     4 NOB=     4 NVA=    19 NVB=    19
 Leave Link  801 at Thu Dec 16 11:32:22 2021, MaxMem=   536870912 cpu:               0.2 elap:               0.1
 (Enter /opt/gaussian/g16/sse4/g16/l804.exe)
 Closed-shell transformation, MDV=   536870912 ITran=4 ISComp=2.
 Semi-Direct transformation.
 ModeAB=           2 MOrb=             4 LenV=     536684719
 LASXX=        10580 LTotXX=       10580 LenRXX=       10580
 LTotAB=       12244 MaxLAS=       29900 LenRXY=       29900
 NonZer=       32384 LenScr=      785920 LnRSAI=           0
 LnScr1=           0 LExtra=           0 Total=       826400
 MaxDsk=          -1 SrtSym=           F ITran=            4
 DoSDTr:  NPSUse=  4
 JobTyp=0 Pass  1:  I=   1 to   4.
 (rs|ai) integrals will be sorted in core.
 Complete sort for first half transformation.
 First half transformation complete.
 Complete sort for second half transformation.
 Second half transformation complete.
 Spin components of T(2) and E(2):
     alpha-alpha T2 =       0.6318692522D-02 E2=     -0.2543528878D-01
     alpha-beta  T2 =       0.3787924672D-01 E2=     -0.1515121215D+00
     beta-beta   T2 =       0.6318692522D-02 E2=     -0.2543528878D-01
 ANorm=    0.1024947136D+01
 E2 =    -0.2023826991D+00 EUMP2 =    -0.76228664662816D+02
 Leave Link  804 at Thu Dec 16 11:32:22 2021, MaxMem=   536870912 cpu:               0.3 elap:               0.1
 (Enter /opt/gaussian/g16/sse4/g16/l913.exe)
 CIDS:  MDV=   536870912.
 Frozen-core window:  NFC=   1 NFV=   0.
 IFCWin=0 IBDFC=1 NFBD=     0     0 NFCmp=     0     0 NFFFC=     0     0
 Using DD3R+UMP44R for 1st iteration.
 Using DD4RQ for 2nd and later iterations.
 Keep R2 and R3 ints in memory in symmetry-blocked form, NReq=884495.
 FoFCou: FMM=F IPFlag=           0 FMFlag=           0 FMFlg1=           0
         NFxFlg=           0 DoJE=F BraDBF=F KetDBF=F FulRan=T
         wScrn=  0.000000 ICntrl=       600 IOpCl=  0 I1Cent=           0 NGrid=           0
         NMat0=    1 NMatS0=    300 NMatT0=    0 NMatD0=    1 NMtDS0=    0 NMtDT0=    0
 Petite list used in FoFCou.
 CIDS: In Core Option IDoMem=           1.
 Coupled Cluster theory with single and double substitutions
 ===========================================================
 Iterations=  50 Convergence= 0.100D-07
 Produce multiple copies of IABC intergrals
 Iteration Nr.   1
 **********************
 DD1Dir will call FoFMem   1 times, MxPair=        20
 NAB=    10 NAA=     0 NBB=     0.
 MP4(R+Q)=  0.18259415D-02
 Maximum subspace dimension=  5
 A-vector RMS=  3.9357914D-03 Max=  6.1067583D-03 conv= 1.00D-06.
 RLE energy=       -0.2075856362
 E3=       -0.69062664D-02        EUMP3=      -0.76235570929D+02
 E4(DQ)=   -0.16093439D-02        UMP4(DQ)=   -0.76237180273D+02
 E4(SDQ)=  -0.23142077D-02        UMP4(SDQ)=  -0.76237885137D+02
 VARIATIONAL ENERGIES WITH THE FIRST-ORDER WAVEFUNCTION:
 DE(Corr)= -0.20745523     E(Corr)=     -76.233737194    
 NORM(A)=   0.10264453D+01
 Iteration Nr.   2
 **********************
 DD1Dir will call FoFMem   1 times, MxPair=        20
 NAB=    10 NAA=     0 NBB=     0.
 A-vector RMS=  7.0955016D-04 Max=  1.8984810D-03 conv= 1.00D-06.
 RLE energy=       -0.2116902909
 DE(Corr)= -0.21080398     E(CORR)=     -76.237085943     Delta=-3.35D-03
 NORM(A)=   0.10280812D+01
 Iteration Nr.   3
 **********************
 DD1Dir will call FoFMem   1 times, MxPair=        20
 NAB=    10 NAA=     0 NBB=     0.
 A-vector RMS=  3.3271695D-04 Max=  8.7266776D-04 conv= 1.00D-06.
 RLE energy=       -0.2118951958
 DE(Corr)= -0.21169515     E(CORR)=     -76.237977118     Delta=-8.91D-04
 NORM(A)=   0.10283172D+01
 Iteration Nr.   4
 **********************
 DD1Dir will call FoFMem   1 times, MxPair=        20
 NAB=    10 NAA=     0 NBB=     0.
 A-vector RMS=  5.9263667D-05 Max=  1.3119401D-04 conv= 1.00D-06.
 RLE energy=       -0.2119194658
 DE(Corr)= -0.21190677     E(CORR)=     -76.238188735     Delta=-2.12D-04
 NORM(A)=   0.10283535D+01
 Iteration Nr.   5
 **********************
 DD1Dir will call FoFMem   1 times, MxPair=        20
 NAB=    10 NAA=     0 NBB=     0.
 A-vector RMS=  3.3288909D-05 Max=  1.2529510D-04 conv= 1.00D-06.
 RLE energy=       -0.2119202643
 DE(Corr)= -0.21191868     E(CORR)=     -76.238200643     Delta=-1.19D-05
 NORM(A)=   0.10283577D+01
 Iteration Nr.   6
 **********************
 DD1Dir will call FoFMem   1 times, MxPair=        20
 NAB=    10 NAA=     0 NBB=     0.
 A-vector RMS=  1.0391223D-05 Max=  3.8588267D-05 conv= 1.00D-06.
 RLE energy=       -0.2119190124
 DE(Corr)= -0.21191959     E(CORR)=     -76.238201556     Delta=-9.13D-07
 NORM(A)=   0.10283585D+01
 Iteration Nr.   7
 **********************
 DD1Dir will call FoFMem   1 times, MxPair=        20
 NAB=    10 NAA=     0 NBB=     0.
 A-vector RMS=  3.0729714D-06 Max=  1.1833129D-05 conv= 1.00D-06.
 RLE energy=       -0.2119197136
 DE(Corr)= -0.21191944     E(CORR)=     -76.238201405     Delta= 1.51D-07
 NORM(A)=   0.10283590D+01
 Iteration Nr.   8
 **********************
 DD1Dir will call FoFMem   1 times, MxPair=        20
 NAB=    10 NAA=     0 NBB=     0.
 A-vector RMS=  5.0182764D-07 Max=  1.6779573D-06 conv= 1.00D-06.
 RLE energy=       -0.2119194977
 DE(Corr)= -0.21191949     E(CORR)=     -76.238201451     Delta=-4.58D-08
 NORM(A)=   0.10283591D+01
 Iteration Nr.   9
 **********************
 DD1Dir will call FoFMem   1 times, MxPair=        20
 NAB=    10 NAA=     0 NBB=     0.
 A-vector RMS=  9.6654336D-08 Max=  3.1358148D-07 conv= 1.00D-06.
 RLE energy=       -0.2119194841
 DE(Corr)= -0.21191948     E(CORR)=     -76.238201447     Delta= 4.50D-09
 NORM(A)=   0.10283591D+01
 CI/CC converged in    9 iterations to DelEn= 4.50D-09 Conv= 1.00D-08 ErrA1= 9.67D-08 Conv= 1.00D-06
 Wavefunction amplitudes converged. E(Corr)=     -76.238201447    
 Largest amplitude= 5.14D-02

 Z-amplitude iterations

 Iteration Nr.   1
 **********************
 DD1Dir will call FoFMem   1 times, MxPair=        20
 NAB=    10 NAA=     0 NBB=     0.
 A-vector RMS=  9.0009862D-04 Max=  1.8006998D-03 conv= 1.00D-06.
 RLE energy=       -0.2119317803
 DE(Z)= -0.20917964     E(Z)=     -76.235461606     Delta= 2.74D-03
 NORM(A)=   0.10283627D+01
 Iteration Nr.   2
 **********************
 DD1Dir will call FoFMem   1 times, MxPair=        20
 NAB=    10 NAA=     0 NBB=     0.
 A-vector RMS=  9.0375952D-04 Max=  1.8082760D-03 conv= 1.00D-06.
 RLE energy=       -0.2118814747
 DE(Z)= -0.20918115     E(Z)=     -76.235463112     Delta=-1.51D-06
 NORM(A)=   0.10283474D+01
 Iteration Nr.   3
 **********************
 DD1Dir will call FoFMem   1 times, MxPair=        20
 NAB=    10 NAA=     0 NBB=     0.
 A-vector RMS=  8.8969470D-04 Max=  1.7802867D-03 conv= 1.00D-06.
 RLE energy=       -0.2118755533
 DE(Z)= -0.20917515     E(Z)=     -76.235457118     Delta= 5.99D-06
 NORM(A)=   0.10283453D+01
 Iteration Nr.   4
 **********************
 DD1Dir will call FoFMem   1 times, MxPair=        20
 NAB=    10 NAA=     0 NBB=     0.
 A-vector RMS=  8.8746457D-04 Max=  1.7753102D-03 conv= 1.00D-06.
 RLE energy=       -0.2118094654
 DE(Z)= -0.20917435     E(Z)=     -76.235456311     Delta= 8.08D-07
 NORM(A)=   0.10283246D+01
 Iteration Nr.   5
 **********************
 DD1Dir will call FoFMem   1 times, MxPair=        20
 NAB=    10 NAA=     0 NBB=     0.
 A-vector RMS=  8.6834769D-04 Max=  1.7370238D-03 conv= 1.00D-06.
 RLE energy=       -0.2088042312
 DE(Z)= -0.20916637     E(Z)=     -76.235448335     Delta= 7.98D-06
 NORM(A)=   0.10274081D+01
 Iteration Nr.   6
 **********************
 DD1Dir will call FoFMem   1 times, MxPair=        20
 NAB=    10 NAA=     0 NBB=     0.
 A-vector RMS=  1.1621455D-06 Max=  2.8768102D-06 conv= 1.00D-06.
 RLE energy=       -0.2088042384
 DE(Z)= -0.20880423     E(Z)=     -76.235086194     Delta= 3.62D-04
 NORM(A)=   0.10274081D+01
 Iteration Nr.   7
 **********************
 DD1Dir will call FoFMem   1 times, MxPair=        20
 NAB=    10 NAA=     0 NBB=     0.
 A-vector RMS=  4.1390004D-07 Max=  1.2344609D-06 conv= 1.00D-06.
 RLE energy=       -0.2088042908
 DE(Z)= -0.20880427     E(Z)=     -76.235086230     Delta=-3.68D-08
 NORM(A)=   0.10274080D+01
 Iteration Nr.   8
 **********************
 DD1Dir will call FoFMem   1 times, MxPair=        20
 NAB=    10 NAA=     0 NBB=     0.
 A-vector RMS=  4.7555267D-08 Max=  1.0996753D-07 conv= 1.00D-06.
 RLE energy=       -0.2088042680
 DE(Z)= -0.20880427     E(Z)=     -76.235086234     Delta=-3.44D-09
 NORM(A)=   0.10274080D+01
 CI/CC converged in    8 iterations to DelEn=-3.44D-09 Conv= 1.00D-08 ErrA1= 4.76D-08 Conv= 1.00D-06
 Z-amplitudes converged.
 Discarding MO integrals.
 Leave Link  913 at Thu Dec 16 11:32:23 2021, MaxMem=   536870912 cpu:               1.7 elap:               0.5
 (Enter /opt/gaussian/g16/sse4/g16/l1111.exe)
 Unit  1 TFree=        104130 TCopy=        250085.
 Selected functions:
 Compute CCSD 2PDM.
 Form Post-SCF non-separable gradient here.
 IO1PDM=    0 IOW=    0 IO2PDM=    0.
 MDV=     536870912.
 Frozen-core window:  NFC=   1 NFV=   0.
 Leave Link 1111 at Thu Dec 16 11:32:23 2021, MaxMem=   536870912 cpu:               1.4 elap:               0.3
 (Enter /opt/gaussian/g16/sse4/g16/l1002.exe)
 Minotr:  Closed shell wavefunction.
          Computing CCSD/QCISD derivatives.
          Using Z-Vector for PSCF gradient.
          Skipping F1 and S1 gradient terms here.
          IDoAtm=111
          Frozen-core window.
          Direct CPHF calculation.
          Differentiating once with respect to electric field.
                with respect to dipole field.
          Differentiating once with respect to nuclear coordinates.
          Using symmetry in CPHF.
          Requested convergence is 1.0D-10 RMS, and 1.0D-09 maximum.
          NewPWx=F KeepS1=T KeepF1=T KeepIn=T MapXYZ=F SortEE=F KeepMc=T.
 Keep R1 ints in memory in symmetry-blocked form, NReq=878721.
 FoFCou: FMM=F IPFlag=           0 FMFlag=           0 FMFlg1=           0
         NFxFlg=           0 DoJE=F BraDBF=F KetDBF=F FulRan=T
         wScrn=  0.000000 ICntrl=       600 IOpCl=  0 I1Cent=           0 NGrid=           0
         NMat0=    1 NMatS0=    300 NMatT0=    0 NMatD0=    1 NMtDS0=    0 NMtDT0=    0
 Petite list used in FoFCou.
          MDV=     536870912 using IRadAn=       5.
          Solving linear equations separately, MaxMat=       0.
          There are     1 degrees of freedom in the 1st order CPHF.  IDoFFX=0 NUNeed=     1.
 LinEq1:  Iter=  0 NonCon=     1 RMS=4.65D-03 Max=2.07D-02 NDo=     1
 AX will form     1 AO Fock derivatives at one time.
 LinEq1:  Iter=  1 NonCon=     1 RMS=3.56D-04 Max=1.83D-03 NDo=     1
 LinEq1:  Iter=  2 NonCon=     1 RMS=1.27D-04 Max=6.48D-04 NDo=     1
 LinEq1:  Iter=  3 NonCon=     1 RMS=3.96D-05 Max=2.43D-04 NDo=     1
 LinEq1:  Iter=  4 NonCon=     1 RMS=6.46D-06 Max=2.40D-05 NDo=     1
 LinEq1:  Iter=  5 NonCon=     1 RMS=8.29D-07 Max=4.58D-06 NDo=     1
 LinEq1:  Iter=  6 NonCon=     1 RMS=7.77D-08 Max=3.43D-07 NDo=     1
 LinEq1:  Iter=  7 NonCon=     1 RMS=6.93D-09 Max=3.17D-08 NDo=     1
 LinEq1:  Iter=  8 NonCon=     1 RMS=5.27D-10 Max=2.04D-09 NDo=     1
 LinEq1:  Iter=  9 NonCon=     0 RMS=4.77D-11 Max=1.79D-10 NDo=     1
 Linear equations converged to 1.000D-10 1.000D-09 after     9 iterations.
 End of Minotr F.D. properties file   721 does not exist.
 End of Minotr F.D. properties file   722 does not exist.
 End of Minotr F.D. properties file   788 does not exist.
 Leave Link 1002 at Thu Dec 16 11:32:24 2021, MaxMem=   536870912 cpu:               1.9 elap:               0.5
 (Enter /opt/gaussian/g16/sse4/g16/l701.exe)
 ... and contract with generalized density number  7.
 Compute integral first derivatives.
 Leave Link  701 at Thu Dec 16 11:32:24 2021, MaxMem=   536870912 cpu:               0.5 elap:               0.1
 (Enter /opt/gaussian/g16/sse4/g16/l702.exe)
 L702 exits ... SP integral derivatives will be done elsewhere.
 Leave Link  702 at Thu Dec 16 11:32:24 2021, MaxMem=   536870912 cpu:               0.1 elap:               0.0
 (Enter /opt/gaussian/g16/sse4/g16/l703.exe)
 Integral derivatives from FoFJK, PRISM(SPDF).
 Compute integral first derivatives, UseDBF=F ICtDFT=           0.
 Calling FoFJK, ICntrl=  10002127 FMM=F ISym2X=1 I1Cent= 0 IOpClX= 0 NMat=1 NMatS=1 NMatT=0.
 FoFJK:  IHMeth= 1 ICntrl=10002127 DoSepK=F KAlg= 0 I1Cent=           0 FoldK=F
 IRaf=         0 NMat=       1 IRICut=       1 DoRegI=T DoRafI=F ISym2E= 1 IDoP0=0 IntGTp=1.
 FoFCou: FMM=F IPFlag=           0 FMFlag=      100000 FMFlg1=         800
         NFxFlg=           0 DoJE=F BraDBF=F KetDBF=F FulRan=T
         wScrn=  0.000000 ICntrl=  10002127 IOpCl=  0 I1Cent=           0 NGrid=           0
         NMat0=    1 NMatS0=      1 NMatT0=    0 NMatD0=    1 NMtDS0=    0 NMtDT0=    0
 Petite list used in FoFCou.
 Leave Link  703 at Thu Dec 16 11:32:25 2021, MaxMem=   536870912 cpu:               0.7 elap:               0.2
 (Enter /opt/gaussian/g16/sse4/g16/l716.exe)
 Dipole        = 4.21950381D-08-7.81304170D-01 7.90122997D-17
 ***** Axes restored to original set *****
 -------------------------------------------------------------------
 Center     Atomic                   Forces (Hartrees/Bohr)
 Number     Number              X              Y              Z
 -------------------------------------------------------------------
      1        8          -0.000336984   -0.000218935    0.000423096
      2        1           0.001184465   -0.000220667    0.000426444
      3        1          -0.000847481    0.000439602   -0.000849540
 -------------------------------------------------------------------
 Cartesian Forces:  Max     0.001184465 RMS     0.000633088
 Leave Link  716 at Thu Dec 16 11:32:25 2021, MaxMem=   536870912 cpu:               0.1 elap:               0.0
 (Enter /opt/gaussian/g16/sse4/g16/l103.exe)

 GradGradGradGradGradGradGradGradGradGradGradGradGradGradGradGradGradGrad
 Berny optimization.
 Using GEDIIS/GDIIS optimizer.
 FormGI is forming the generalized inverse of G from B-inverse, IUseBI=4.
 Internal  Forces:  Max     0.001150115 RMS     0.001106987
 Search for a local minimum.
 Step number   2 out of a maximum of   20
 All quantities printed in internal units (Hartrees-Bohrs-Radians)
 RMS Force = .11070D-02 SwitMx=.10000D-02 MixMth= 1
 Mixed Optimization -- RFO/linear search
 Update second derivatives using D2CorX and points    1    2
 DE= -1.28D-04 DEPred=-1.56D-04 R= 8.18D-01
 TightC=F SS=  1.41D+00  RLast= 3.89D-02 DXNew= 5.0454D-01 1.1682D-01
 Trust test= 8.18D-01 RLast= 3.89D-02 DXMaxT set to 3.00D-01
 The second derivative matrix:
                          R1        R2        A1
           R1           0.55771
           R2           0.02190   0.55771
           A1           0.02007   0.02007   0.17757
 ITU=  1  0
 Use linear search instead of GDIIS.
     Eigenvalues ---    0.17558   0.53582   0.58160
 RFO step:  Lambda=-1.38251975D-07 EMin= 1.75578901D-01
 Quartic linear search produced a step of -0.15626.
 Iteration  1 RMS(Cart)=  0.00375085 RMS(Int)=  0.00000576
 Iteration  2 RMS(Cart)=  0.00000380 RMS(Int)=  0.00000000
 Iteration  3 RMS(Cart)=  0.00000000 RMS(Int)=  0.00000000
 ITry= 1 IFail=0 DXMaxC= 4.04D-03 DCOld= 1.00D+10 DXMaxT= 3.00D-01 DXLimC= 3.00D+00 Rises=F
 ClnCor:  largest displacement from symmetrization is 4.63D-16 for atom     2.
 Variable       Old X    -DE/DX   Delta X   Delta X   Delta X     New X
                                 (Linear)    (Quad)   (Total)
    R1        1.82154   0.00115   0.00150   0.00029   0.00179   1.82334
    R2        1.82154   0.00115   0.00150   0.00029   0.00179   1.82334
    A1        1.77826   0.00102   0.00570  -0.00054   0.00517   1.78343
         Item               Value     Threshold  Converged?
 Maximum Force            0.001150     0.000450     NO 
 RMS     Force            0.001107     0.000300     NO 
 Maximum Displacement     0.004043     0.001800     NO 
 RMS     Displacement     0.003751     0.001200     NO 
 Predicted change in Energy=-4.764901D-06
 Lowest energy point so far.  Saving SCF results.
 GradGradGradGradGradGradGradGradGradGradGradGradGradGradGradGradGradGrad

 Leave Link  103 at Thu Dec 16 11:32:25 2021, MaxMem=   536870912 cpu:               0.0 elap:               0.0
 (Enter /opt/gaussian/g16/sse4/g16/l202.exe)
                          Input orientation:                          
 ---------------------------------------------------------------------
 Center     Atomic      Atomic             Coordinates (Angstroms)
 Number     Number       Type             X           Y           Z
 ---------------------------------------------------------------------
      1          8           0        0.902866   -0.072105    0.026323
      2          1           0        1.865783   -0.043920   -0.028145
      3          1           0        0.639711    0.354515   -0.798127
 ---------------------------------------------------------------------
                    Distance matrix (angstroms):
                    1          2          3
     1  O    0.000000
     2  H    0.964869   0.000000
     3  H    0.964869   1.501624   0.000000
 Stoichiometry    H2O
 Framework group  CS[SG(H2O)]
 Deg. of freedom     3
 Full point group                 CS      NOp   2
 RotChk:  IX=0 Diff= 1.51D-07
 Largest Abelian subgroup         CS      NOp   2
 Largest concise Abelian subgroup C1      NOp   1
                         Standard orientation:                         
 ---------------------------------------------------------------------
 Center     Atomic      Atomic             Coordinates (Angstroms)
 Number     Number       Type             X           Y           Z
 ---------------------------------------------------------------------
      1          8           0        0.000000    0.121203    0.000000
      2          1           0        0.750812   -0.484811    0.000000
      3          1           0       -0.750812   -0.484811   -0.000000
 ---------------------------------------------------------------------
 Rotational constants (GHZ):         768.7446275         444.7741019         281.7572510
 Leave Link  202 at Thu Dec 16 11:32:25 2021, MaxMem=   536870912 cpu:               0.0 elap:               0.0
 (Enter /opt/gaussian/g16/sse4/g16/l301.exe)
 Standard basis: CC-pVDZ (5D, 7F)
 Ernie: Thresh=  0.10000D-02 Tol=  0.10000D-05 Strict=F.
 Ernie:  2 primitive shells out of 32 were deleted.
 There are    19 symmetry adapted cartesian basis functions of A'  symmetry.
 There are     6 symmetry adapted cartesian basis functions of A"  symmetry.
 There are    18 symmetry adapted basis functions of A'  symmetry.
 There are     6 symmetry adapted basis functions of A"  symmetry.
    24 basis functions,    47 primitive gaussians,    25 cartesian basis functions
     5 alpha electrons        5 beta electrons
       nuclear repulsion energy         9.1275185496 Hartrees.
 IExCor=    0 DFT=F Ex=HF Corr=None ExCW=0 ScaHFX=  1.000000
 ScaDFX=  1.000000  1.000000  1.000000  1.000000 ScalE2=  1.000000  1.000000
 IRadAn=      5 IRanWt=     -1 IRanGd=            0 ICorTp=0 IEmpDi=  4
 NAtoms=    3 NActive=    3 NUniq=    3 SFac= 1.00D+00 NAtFMM=   60 NAOKFM=F Big=F
 Integral buffers will be    131072 words long.
 Raffenetti 1 integral format.
 Two-electron integral symmetry is turned on.
 Leave Link  301 at Thu Dec 16 11:32:25 2021, MaxMem=   536870912 cpu:               0.2 elap:               0.1
 (Enter /opt/gaussian/g16/sse4/g16/l302.exe)
 NPDir=0 NMtPBC=     1 NCelOv=     1 NCel=       1 NClECP=     1 NCelD=      1
         NCelK=      1 NCelE2=     1 NClLst=     1 CellRange=     0.0.
 One-electron integrals computed using PRISM.
 One-electron integral symmetry used in STVInt
 NBasis=    24 RedAO= T EigKep=  3.48D-02  NBF=    18     6
 NBsUse=    24 1.00D-06 EigRej= -1.00D+00 NBFU=    18     6
 Leave Link  302 at Thu Dec 16 11:32:26 2021, MaxMem=   536870912 cpu:               0.5 elap:               0.1
 (Enter /opt/gaussian/g16/sse4/g16/l303.exe)
 DipDrv:  MaxL=1.
 Leave Link  303 at Thu Dec 16 11:32:26 2021, MaxMem=   536870912 cpu:               0.1 elap:               0.0
 (Enter /opt/gaussian/g16/sse4/g16/l401.exe)
 Initial guess from the checkpoint file:  "CCSD_Water_gaus.chk"
 B after Tr=     0.000000   -0.000000    0.000000
         Rot=    1.000000   -0.000000   -0.000000    0.000000 Ang=   0.00 deg.
 Guess basis will be translated and rotated to current coordinates.
 JPrj=2 DoOrth=T DoCkMO=T.
 Initial guess orbital symmetries:
       Occupied  (A') (A') (A') (A') (A")
       Virtual   (A') (A') (A') (A') (A') (A") (A') (A') (A") (A")
                 (A') (A') (A') (A') (A") (A") (A') (A') (A')
 The electronic state of the initial guess is 1-A'.
 Leave Link  401 at Thu Dec 16 11:32:26 2021, MaxMem=   536870912 cpu:               0.3 elap:               0.1
 (Enter /opt/gaussian/g16/sse4/g16/l502.exe)
 Keep R1 ints in memory in symmetry-blocked form, NReq=878187.
 FoFCou: FMM=F IPFlag=           0 FMFlag=           0 FMFlg1=           0
         NFxFlg=           0 DoJE=F BraDBF=F KetDBF=F FulRan=T
         wScrn=  0.000000 ICntrl=       600 IOpCl=  0 I1Cent=           0 NGrid=           0
         NMat0=    1 NMatS0=    300 NMatT0=    0 NMatD0=    1 NMtDS0=    0 NMtDT0=    0
 Petite list used in FoFCou.
 Closed shell SCF:
 Using DIIS extrapolation, IDIIS=  1040.
 NGot=   536870912 LenX=   536843682 LenY=   536842616
 Requested convergence on RMS density matrix=1.00D-08 within 128 cycles.
 Requested convergence on MAX density matrix=1.00D-06.
 Requested convergence on             energy=1.00D-06.
 No special actions if energy rises.

 Cycle   1  Pass 1  IDiag  1:
 E= -76.0262453754651    
 DIIS: error= 2.71D-04 at cycle   1 NSaved=   1.
 NSaved= 1 IEnMin= 1 EnMin= -76.0262453754651     IErMin= 1 ErrMin= 2.71D-04
 ErrMax= 2.71D-04  0.00D+00 EMaxC= 1.00D-01 BMatC= 1.96D-06 BMatP= 1.96D-06
 IDIUse=3 WtCom= 9.97D-01 WtEn= 2.71D-03
 Coeff-Com:  0.100D+01
 Coeff-En:   0.100D+01
 Coeff:      0.100D+01
 Gap=     0.677 Goal=   None    Shift=    0.000
 RMSDP=7.34D-05 MaxDP=5.15D-04              OVMax= 4.57D-04

 Cycle   2  Pass 1  IDiag  1:
 E= -76.0262473219447     Delta-E=       -0.000001946480 Rises=F Damp=F
 DIIS: error= 4.25D-05 at cycle   2 NSaved=   2.
 NSaved= 2 IEnMin= 2 EnMin= -76.0262473219447     IErMin= 2 ErrMin= 4.25D-05
 ErrMax= 4.25D-05  0.00D+00 EMaxC= 1.00D-01 BMatC= 6.72D-08 BMatP= 1.96D-06
 IDIUse=1 WtCom= 1.00D+00 WtEn= 0.00D+00
 Coeff-Com: -0.153D+00 0.115D+01
 Coeff:     -0.153D+00 0.115D+01
 Gap=     0.677 Goal=   None    Shift=    0.000
 RMSDP=1.53D-05 MaxDP=1.13D-04 DE=-1.95D-06 OVMax= 1.15D-04

 Cycle   3  Pass 1  IDiag  1:
 E= -76.0262473968426     Delta-E=       -0.000000074898 Rises=F Damp=F
 DIIS: error= 1.52D-05 at cycle   3 NSaved=   3.
 NSaved= 3 IEnMin= 3 EnMin= -76.0262473968426     IErMin= 3 ErrMin= 1.52D-05
 ErrMax= 1.52D-05  0.00D+00 EMaxC= 1.00D-01 BMatC= 6.64D-09 BMatP= 6.72D-08
 IDIUse=1 WtCom= 1.00D+00 WtEn= 0.00D+00
 Coeff-Com: -0.565D-01 0.310D+00 0.747D+00
 Coeff:     -0.565D-01 0.310D+00 0.747D+00
 Gap=     0.677 Goal=   None    Shift=    0.000
 RMSDP=2.30D-06 MaxDP=2.07D-05 DE=-7.49D-08 OVMax= 2.37D-05

 Cycle   4  Pass 1  IDiag  1:
 E= -76.0262474016454     Delta-E=       -0.000000004803 Rises=F Damp=F
 DIIS: error= 2.55D-06 at cycle   4 NSaved=   4.
 NSaved= 4 IEnMin= 4 EnMin= -76.0262474016454     IErMin= 4 ErrMin= 2.55D-06
 ErrMax= 2.55D-06  0.00D+00 EMaxC= 1.00D-01 BMatC= 2.08D-10 BMatP= 6.64D-09
 IDIUse=1 WtCom= 1.00D+00 WtEn= 0.00D+00
 Coeff-Com:  0.500D-02-0.497D-01 0.590D-01 0.986D+00
 Coeff:      0.500D-02-0.497D-01 0.590D-01 0.986D+00
 Gap=     0.677 Goal=   None    Shift=    0.000
 RMSDP=5.41D-07 MaxDP=3.27D-06 DE=-4.80D-09 OVMax= 5.22D-06

 Cycle   5  Pass 1  IDiag  1:
 E= -76.0262474018485     Delta-E=       -0.000000000203 Rises=F Damp=F
 DIIS: error= 5.13D-07 at cycle   5 NSaved=   5.
 NSaved= 5 IEnMin= 5 EnMin= -76.0262474018485     IErMin= 5 ErrMin= 5.13D-07
 ErrMax= 5.13D-07  0.00D+00 EMaxC= 1.00D-01 BMatC= 3.38D-12 BMatP= 2.08D-10
 IDIUse=1 WtCom= 1.00D+00 WtEn= 0.00D+00
 Coeff-Com:  0.160D-02-0.753D-02-0.256D-01-0.278D-01 0.106D+01
 Coeff:      0.160D-02-0.753D-02-0.256D-01-0.278D-01 0.106D+01
 Gap=     0.677 Goal=   None    Shift=    0.000
 RMSDP=1.00D-07 MaxDP=7.43D-07 DE=-2.03D-10 OVMax= 1.33D-06

 Cycle   6  Pass 1  IDiag  1:
 E= -76.0262474018542     Delta-E=       -0.000000000006 Rises=F Damp=F
 DIIS: error= 8.66D-08 at cycle   6 NSaved=   6.
 NSaved= 6 IEnMin= 6 EnMin= -76.0262474018542     IErMin= 6 ErrMin= 8.66D-08
 ErrMax= 8.66D-08  0.00D+00 EMaxC= 1.00D-01 BMatC= 1.75D-13 BMatP= 3.38D-12
 IDIUse=1 WtCom= 1.00D+00 WtEn= 0.00D+00
 Coeff-Com: -0.666D-03 0.339D-02 0.926D-02-0.116D-02-0.432D+00 0.142D+01
 Coeff:     -0.666D-03 0.339D-02 0.926D-02-0.116D-02-0.432D+00 0.142D+01
 Gap=     0.677 Goal=   None    Shift=    0.000
 RMSDP=3.15D-08 MaxDP=2.68D-07 DE=-5.73D-12 OVMax= 4.47D-07

 Cycle   7  Pass 1  IDiag  1:
 E= -76.0262474018546     Delta-E=       -0.000000000000 Rises=F Damp=F
 DIIS: error= 2.15D-08 at cycle   7 NSaved=   7.
 NSaved= 7 IEnMin= 7 EnMin= -76.0262474018546     IErMin= 7 ErrMin= 2.15D-08
 ErrMax= 2.15D-08  0.00D+00 EMaxC= 1.00D-01 BMatC= 8.26D-15 BMatP= 1.75D-13
 IDIUse=1 WtCom= 1.00D+00 WtEn= 0.00D+00
 Coeff-Com:  0.216D-03-0.115D-02-0.261D-02 0.275D-02 0.132D+00-0.594D+00
 Coeff-Com:  0.146D+01
 Coeff:      0.216D-03-0.115D-02-0.261D-02 0.275D-02 0.132D+00-0.594D+00
 Coeff:      0.146D+01
 Gap=     0.677 Goal=   None    Shift=    0.000
 RMSDP=8.14D-09 MaxDP=7.17D-08 DE=-4.26D-13 OVMax= 1.20D-07

 SCF Done:  E(RHF) =  -76.0262474019     A.U. after    7 cycles
            NFock=  7  Conv=0.81D-08     -V/T= 2.0008
 KE= 7.596319311357D+01 PE=-1.989868268189D+02 EE= 3.786986775389D+01
 Leave Link  502 at Thu Dec 16 11:32:26 2021, MaxMem=   536870912 cpu:               0.8 elap:               0.2
 (Enter /opt/gaussian/g16/sse4/g16/l801.exe)
 Windowed orbitals will be sorted by symmetry type.
 ExpMin= 1.22D-01 ExpMax= 1.17D+04 ExpMxC= 4.01D+02 IAcc=3 IRadAn=         5 AccDes= 0.00D+00
 HarFok:  IExCor=  205 AccDes= 0.00D+00 IRadAn=         5 IDoV=-2 UseB2=F ITyADJ=14
 ICtDFT= 12500011 ScaDFX=  1.000000  1.000000  1.000000  1.000000
 Largest valence mixing into a core orbital is  6.05D-05
 Largest core mixing into a valence orbital is  1.71D-05
 Range of M.O.s used for correlation:     2    24
 NBasis=    24 NAE=     5 NBE=     5 NFC=     1 NFV=     0
 NROrb=     23 NOA=     4 NOB=     4 NVA=    19 NVB=    19
 Leave Link  801 at Thu Dec 16 11:32:26 2021, MaxMem=   536870912 cpu:               0.3 elap:               0.1
 (Enter /opt/gaussian/g16/sse4/g16/l804.exe)
 Closed-shell transformation, MDV=   536870912 ITran=4 ISComp=2.
 Semi-Direct transformation.
 ModeAB=           2 MOrb=             4 LenV=     536684719
 LASXX=        10580 LTotXX=       10580 LenRXX=       10580
 LTotAB=       12244 MaxLAS=       29900 LenRXY=       29900
 NonZer=       32384 LenScr=      785920 LnRSAI=           0
 LnScr1=           0 LExtra=           0 Total=       826400
 MaxDsk=          -1 SrtSym=           F ITran=            4
 DoSDTr:  NPSUse=  4
 JobTyp=0 Pass  1:  I=   1 to   4.
 (rs|ai) integrals will be sorted in core.
 Complete sort for first half transformation.
 First half transformation complete.
 Complete sort for second half transformation.
 Second half transformation complete.
 Spin components of T(2) and E(2):
     alpha-alpha T2 =       0.6321440498D-02 E2=     -0.2543572885D-01
     alpha-beta  T2 =       0.3791043481D-01 E2=     -0.1515456040D+00
     beta-beta   T2 =       0.6321440498D-02 E2=     -0.2543572885D-01
 ANorm=    0.1024965032D+01
 E2 =    -0.2024170617D+00 EUMP2 =    -0.76228664463589D+02
 Leave Link  804 at Thu Dec 16 11:32:27 2021, MaxMem=   536870912 cpu:               0.3 elap:               0.1
 (Enter /opt/gaussian/g16/sse4/g16/l913.exe)
 CIDS:  MDV=   536870912.
 Frozen-core window:  NFC=   1 NFV=   0.
 IFCWin=0 IBDFC=1 NFBD=     0     0 NFCmp=     0     0 NFFFC=     0     0
 Using DD3R+UMP44R for 1st iteration.
 Using DD4RQ for 2nd and later iterations.
 Keep R2 and R3 ints in memory in symmetry-blocked form, NReq=884495.
 FoFCou: FMM=F IPFlag=           0 FMFlag=           0 FMFlg1=           0
         NFxFlg=           0 DoJE=F BraDBF=F KetDBF=F FulRan=T
         wScrn=  0.000000 ICntrl=       600 IOpCl=  0 I1Cent=           0 NGrid=           0
         NMat0=    1 NMatS0=    300 NMatT0=    0 NMatD0=    1 NMtDS0=    0 NMtDT0=    0
 Petite list used in FoFCou.
 CIDS: In Core Option IDoMem=           1.
 Coupled Cluster theory with single and double substitutions
 ===========================================================
 Iterations=  50 Convergence= 0.100D-07
 Produce multiple copies of IABC intergrals
 Iteration Nr.   1
 **********************
 DD1Dir will call FoFMem   1 times, MxPair=        20
 NAB=    10 NAA=     0 NBB=     0.
 MP4(R+Q)=  0.18260675D-02
 Maximum subspace dimension=  5
 A-vector RMS=  3.9398045D-03 Max=  6.1162717D-03 conv= 1.00D-06.
 RLE energy=       -0.2076158398
 E3=       -0.69024488D-02        EUMP3=      -0.76235566912D+02
 E4(DQ)=   -0.16150972D-02        UMP4(DQ)=   -0.76237182010D+02
 E4(SDQ)=  -0.23211421D-02        UMP4(SDQ)=  -0.76237888055D+02
 VARIATIONAL ENERGIES WITH THE FIRST-ORDER WAVEFUNCTION:
 DE(Corr)= -0.20748566     E(Corr)=     -76.233733063    
 NORM(A)=   0.10264648D+01
 Iteration Nr.   2
 **********************
[...]
 End of Minotr F.D. properties file   722 does not exist.
 End of Minotr F.D. properties file   788 does not exist.
 Leave Link 1002 at Thu Dec 16 11:35:08 2021, MaxMem=   536870912 cpu:               2.4 elap:               0.6
 (Enter /opt/gaussian/g16/sse4/g16/l601.exe)
 Copying SCF densities to generalized density rwf, IOpCl= 0 IROHF=0.

 **********************************************************************

            Population analysis using the QCI/CC density.

 **********************************************************************

 Alpha  occ. eigenvalues --  -20.55304  -1.33471  -0.69080  -0.56994  -0.49346
 Alpha virt. eigenvalues --    0.18380   0.25537   0.77618   0.85751   1.16610
 Alpha virt. eigenvalues --    1.19965   1.25624   1.42394   1.48209   1.66018
 Alpha virt. eigenvalues --    1.86399   1.94024   2.42934   2.47582   3.29081
 Alpha virt. eigenvalues --    3.32268   3.50806   3.84161   4.15157
          Condensed to atoms (all electrons):
               1          2          3
     1  O    7.594117   0.339830   0.339830
     2  H    0.339830   0.559499  -0.036217
     3  H    0.339830  -0.036217   0.559499
 Mulliken charges:
               1
     1  O   -0.273777
     2  H    0.136888
     3  H    0.136889
 Sum of Mulliken charges =  -0.00000
 Mulliken charges with hydrogens summed into heavy atoms:
               1
     1  O   -0.000000
 Electronic spatial extent (au):  <R**2>=             19.0166
 Charge=             -0.0000 electrons
 Dipole moment (field-independent basis, Debye):
    X=              0.0000    Y=             -1.9825    Z=              0.0016  Tot=              1.9825
 Quadrupole moment (field-independent basis, Debye-Ang):
   XX=             -4.3599   YY=             -5.9071   ZZ=             -7.0733
   XY=             -0.0000   XZ=             -0.0018   YZ=             -0.0012
 Traceless Quadrupole moment (field-independent basis, Debye-Ang):
   XX=              1.4202   YY=             -0.1270   ZZ=             -1.2932
   XY=             -0.0000   XZ=             -0.0018   YZ=             -0.0012
 Octapole moment (field-independent basis, Debye-Ang**2):
  XXX=              0.0000  YYY=             -1.1149  ZZZ=             -0.0014  XYY=              0.0000
  XXY=             -1.1739  XXZ=              0.0005  XZZ=             -0.0000  YZZ=             -0.2756
  YYZ=             -0.0001  XYZ=              0.0006
 Hexadecapole moment (field-independent basis, Debye-Ang**3):
 XXXX=             -5.9775 YYYY=             -6.0546 ZZZZ=             -4.9335 XXXY=             -0.0000
 XXXZ=             -0.0002 YYYX=             -0.0000 YYYZ=              0.0002 ZZZX=              0.0009
 ZZZY=              0.0005 XXYY=             -1.6381 XXZZ=             -2.0822 YYZZ=             -1.8924
 XXYZ=             -0.0005 YYXZ=             -0.0002 ZZXY=              0.0000
 N-N= 9.127516115008D+00 E-N=-1.989813657256D+02  KE= 7.616403560162D+01
 No NMR shielding tensors so no spin-rotation constants.
 Leave Link  601 at Thu Dec 16 11:35:09 2021, MaxMem=   536870912 cpu:               0.4 elap:               0.1
 (Enter /opt/gaussian/g16/sse4/g16/l701.exe)
 ... and contract with generalized density number  7.
 Compute integral first derivatives.
 Leave Link  701 at Thu Dec 16 11:35:10 2021, MaxMem=   536870912 cpu:               0.4 elap:               0.1
 (Enter /opt/gaussian/g16/sse4/g16/l702.exe)
 L702 exits ... SP integral derivatives will be done elsewhere.
 Leave Link  702 at Thu Dec 16 11:35:10 2021, MaxMem=   536870912 cpu:               0.1 elap:               0.0
 (Enter /opt/gaussian/g16/sse4/g16/l703.exe)
 Integral derivatives from FoFJK, PRISM(SPDF).
 Compute integral first derivatives, UseDBF=F ICtDFT=           0.
 Calling FoFJK, ICntrl=  10002127 FMM=F ISym2X=0 I1Cent= 0 IOpClX= 0 NMat=1 NMatS=1 NMatT=0.
 FoFJK:  IHMeth= 1 ICntrl=10002127 DoSepK=F KAlg= 0 I1Cent=           0 FoldK=F
 IRaf=         0 NMat=       1 IRICut=       1 DoRegI=T DoRafI=F ISym2E= 0 IDoP0=0 IntGTp=1.
 FoFCou: FMM=F IPFlag=           0 FMFlag=      100000 FMFlg1=         800
         NFxFlg=           0 DoJE=F BraDBF=F KetDBF=F FulRan=T
         wScrn=  0.000000 ICntrl=  10002127 IOpCl=  0 I1Cent=           0 NGrid=           0
         NMat0=    1 NMatS0=      1 NMatT0=    0 NMatD0=    1 NMtDS0=    0 NMtDT0=    0
 Symmetry not used in FoFCou.
 Leave Link  703 at Thu Dec 16 11:35:11 2021, MaxMem=   536870912 cpu:               0.7 elap:               0.2
 (Enter /opt/gaussian/g16/sse4/g16/l716.exe)
 Dipole        = 1.33591181D-07-7.79969611D-01 6.43524286D-04
 -------------------------------------------------------------------
 Center     Atomic                   Forces (Hartrees/Bohr)
 Number     Number              X              Y              Z
 -------------------------------------------------------------------
      1        8          -0.000000432    0.000012158   -0.000000010
      2        1           0.000004429   -0.000006253    0.000000002
      3        1          -0.000003998   -0.000005905    0.000000008
 -------------------------------------------------------------------
 Cartesian Forces:  Max     0.000012158 RMS     0.000005350
 Leave Link  716 at Thu Dec 16 11:35:11 2021, MaxMem=   536870912 cpu:               0.1 elap:               0.0
 (Enter /opt/gaussian/g16/sse4/g16/l106.exe)
 NDeriv=      9 NFrqRd=  0 NDerD0=      0 MskFDP=       0 MskDFD=       0 MskDF0=       0
 Re-enter D2Numr:  atom   3 IXYZ=3 step-up   number 1
 Skip step-back as it is equivalent to step-up.
 Finish atom      3 at Thu Dec 16 11:35:11 2021
 Maximum difference in off-diagonal FC elements:
 I=  8 J=  1 Difference=    4.7245425300D-06
 Max difference between analytic and numerical forces:
 I=  7 Difference=    3.8805873986D-07
 FinFTb:  IFil= 1 IFilD=  777 LTop=  1 LFil=         4 LTop1=  0 IMask=  1
 Leave Link  106 at Thu Dec 16 11:35:11 2021, MaxMem=   536870912 cpu:               0.4 elap:               0.1
 (Enter /opt/gaussian/g16/sse4/g16/l716.exe)
 Dipole        = 2.07050538D-09-7.79969758D-01-1.11022302D-16
 Full mass-weighted force constant matrix:
 Low frequencies ---  -12.4063  -12.3347   -8.5984   -0.0044    0.0163    0.2876
 Low frequencies --- 1696.5141 3846.2836 3950.4438
 Diagonal vibrational polarizability:
        0.0390166       0.5331398       0.0000000
 Harmonic frequencies (cm**-1), IR intensities (KM/Mole), Raman scattering
 activities (A**4/AMU), depolarization ratios for plane and unpolarized
 incident light, reduced masses (AMU), force constants (mDyne/A),
 and normal coordinates:
                      1                      2                      3
                     A'                     A'                     A'
 Frequencies --   1696.5141              3846.2836              3950.4438
 Red. masses --      1.0810                 1.0467                 1.0795
 Frc consts  --      1.8332                 9.1233                 9.9261
 IR Inten    --     56.1545                 4.4460                22.6260
  Atom  AN      X      Y      Z        X      Y      Z        X      Y      Z
     1   8    -0.00  -0.07   0.00    -0.00  -0.05   0.00    -0.07   0.00  -0.00
     2   1     0.44   0.55   0.00    -0.58   0.40  -0.00     0.55  -0.44   0.00
     3   1    -0.44   0.55  -0.00     0.58   0.40   0.00     0.55   0.44   0.00

 -------------------
 - Thermochemistry -
 -------------------
 Temperature   298.150 Kelvin.  Pressure   1.00000 Atm.
 Atom     1 has atomic number  8 and mass  15.99491
 Atom     2 has atomic number  1 and mass   1.00783
 Atom     3 has atomic number  1 and mass   1.00783
 Molecular mass:    18.01056 amu.
 Principal axes and moments of inertia in atomic units:
                           1         2         3
     Eigenvalues --     2.34765   4.05766   6.40531
           X            1.00000  -0.00000  -0.00000
           Y            0.00000   1.00000   0.00000
           Z            0.00000  -0.00000   1.00000
 This molecule is an asymmetric top.
 Rotational symmetry number  1.
 Rotational temperatures (Kelvin)     36.89393    21.34579    13.52222
 Rotational constants (GHZ):         768.74463   444.77410   281.75725
 Zero-point vibrational energy      56782.2 (Joules/Mol)
                                   13.57127 (Kcal/Mol)
 Vibrational temperatures:   2440.91  5533.94  5683.81
          (Kelvin)
 
 Zero-point correction=                           0.021627 (Hartree/Particle)
 Thermal correction to Energy=                    0.024462
 Thermal correction to Enthalpy=                  0.025406
 Thermal correction to Gibbs Free Energy=         0.003312
 Sum of electronic and zero-point Energies=            -76.216579
 Sum of electronic and thermal Energies=               -76.213744
 Sum of electronic and thermal Enthalpies=             -76.212800
 Sum of electronic and thermal Free Energies=          -76.234894
 
                     E (Thermal)             CV                S
                      KCal/Mol        Cal/Mol-Kelvin    Cal/Mol-Kelvin
 Total                   15.350              5.999             46.501
 Electronic               0.000              0.000              0.000
 Translational            0.889              2.981             34.608
 Rotational               0.889              2.981             11.888
 Vibrational             13.573              0.037              0.005
                       Q            Log10(Q)             Ln(Q)
 Total Bot       0.299657D-01         -1.523375         -3.507701
 Total V=0       0.265727D+09          8.424435         19.397979
 Vib (Bot)       0.112800D-09         -9.947690        -22.905402
 Vib (V=0)       0.100028D+01          0.000121          0.000278
 Electronic      0.100000D+01          0.000000          0.000000
 Translational   0.300431D+07          6.477745         14.915559
 Rotational      0.884239D+02          1.946570          4.482142
 
                                                              Water.xyz
                                                             IR Spectrum
 
     3   3                                                                    1                                                      
     9   8                                                                    6                                                      
     5   4                                                                    9                                                      
     0   6                                                                    7                                                      
 
     X   X                                                                    X                                                      
     X   X                                                                    X                                                      
     X                                                                        X                                                      
     X                                                                        X                                                      
     X                                                                        X                                                      
     X                                                                        X                                                      
     X                                                                        X                                                      
     X                                                                        X                                                      
                                                                              X                                                      
                                                                              X                                                      
                                                                              X                                                      
                                                                              X                                                      
                                                                              X                                                      
                                                                              X                                                      
                                                                              X                                                      
                                                                              X                                                      
                                                                              X                                                      
                                                                              X                                                      
                                                                              X                                                      
                                                                              X                                                      
 
 ***** Axes restored to original set *****
 -------------------------------------------------------------------
 Center     Atomic                   Forces (Hartrees/Bohr)
 Number     Number              X              Y              Z
 -------------------------------------------------------------------
      1        8          -0.000007207   -0.000004680    0.000009045
      2        1           0.000007213    0.000001168   -0.000002258
      3        1          -0.000000006    0.000003512   -0.000006787
 -------------------------------------------------------------------
 Cartesian Forces:  Max     0.000009045 RMS     0.000005503
 Force constants in Cartesian coordinates: 
                1             2             3             4             5 
      1  0.606752D+00
      2 -0.409190D-01  0.114846D+00
      3  0.790767D-01 -0.221962D+00  0.428936D+00
      4 -0.527342D+00 -0.891346D-03  0.172257D-02  0.546443D+00
      5 -0.309737D-01 -0.101193D-01  0.195656D-01  0.610766D-02  0.109616D-01
      6  0.598572D-01  0.195656D-01 -0.378058D-01 -0.118032D-01 -0.211911D-01
      7 -0.794087D-01  0.418092D-01 -0.807970D-01 -0.191007D-01  0.248664D-01
      8  0.718915D-01 -0.104727D+00  0.202397D+00 -0.521548D-02 -0.842175D-03
      9 -0.138932D+00  0.202397D+00 -0.391131D+00  0.100790D-01  0.162526D-02
                6             7             8             9 
      6  0.409483D-01
      7 -0.480547D-01  0.985090D-01
      8  0.162526D-02 -0.666752D-01  0.105569D+00
      9 -0.314201D-02  0.128851D+00 -0.204023D+00  0.394274D+00
 FormGI is forming the generalized inverse of G from B-inverse, IUseBI=4.
 Force constants in internal coordinates: 
                1             2             3 
      1  0.546131D+00
      2 -0.687995D-02  0.546131D+00
      3  0.331642D-01  0.331642D-01  0.173642D+00
 Leave Link  716 at Thu Dec 16 11:35:16 2021, MaxMem=   536870912 cpu:               0.1 elap:               0.0
 (Enter /opt/gaussian/g16/sse4/g16/l103.exe)

 GradGradGradGradGradGradGradGradGradGradGradGradGradGradGradGradGradGrad
 Berny optimization.
 Red2BG is reusing G-inverse.
 Internal  Forces:  Max     0.000007360 RMS     0.000006393
 Search for a local minimum.
 Step number   1 out of a maximum of    2
 All quantities printed in internal units (Hartrees-Bohrs-Radians)
 Second derivative matrix not updated -- analytic derivatives used.
 The second derivative matrix:
                          R1        R2        A1
           R1           0.54613
           R2          -0.00688   0.54613
           A1           0.03316   0.03316   0.17364
 ITU=  0
     Eigenvalues ---    0.16772   0.54517   0.55301
 Angle between quadratic step and forces=  31.90 degrees.
 Linear search not attempted -- first point.
 Iteration  1 RMS(Cart)=  0.00001417 RMS(Int)=  0.00000000
 Iteration  2 RMS(Cart)=  0.00000000 RMS(Int)=  0.00000000
 ITry= 1 IFail=0 DXMaxC= 1.42D-05 DCOld= 1.00D+10 DXMaxT= 3.00D-01 DXLimC= 3.00D+00 Rises=F
 ClnCor:  largest displacement from symmetrization is 1.91D-15 for atom     3.
 Variable       Old X    -DE/DX   Delta X   Delta X   Delta X     New X
                                 (Linear)    (Quad)   (Total)
    R1        1.82334   0.00001   0.00000   0.00002   0.00002   1.82335
    R2        1.82334   0.00001   0.00000   0.00002   0.00002   1.82335
    A1        1.78343  -0.00000   0.00000  -0.00003  -0.00003   1.78340
         Item               Value     Threshold  Converged?
 Maximum Force            0.000007     0.000450     YES
 RMS     Force            0.000006     0.000300     YES
 Maximum Displacement     0.000014     0.001800     YES
 RMS     Displacement     0.000014     0.001200     YES
 Predicted change in Energy=-1.653680D-10
 Optimization completed.
    -- Stationary point found.
                           ----------------------------
                           !   Optimized Parameters   !
                           ! (Angstroms and Degrees)  !
 --------------------------                            --------------------------
 ! Name  Definition              Value          Derivative Info.                !
 --------------------------------------------------------------------------------
 ! R1    R(1,2)                  0.9649         -DE/DX =    0.0                 !
 ! R2    R(1,3)                  0.9649         -DE/DX =    0.0                 !
 ! A1    A(2,1,3)              102.1829         -DE/DX =    0.0                 !
 --------------------------------------------------------------------------------
 GradGradGradGradGradGradGradGradGradGradGradGradGradGradGradGradGradGrad

 Leave Link  103 at Thu Dec 16 11:35:16 2021, MaxMem=   536870912 cpu:               0.1 elap:               0.0
 (Enter /opt/gaussian/g16/sse4/g16/l9999.exe)
 1\1\GINC-NODE677\Freq\RCCSD-FC\CC-pVDZ\H2O1\THEOB\16-Dec-2021\0\\#P Ge
 om=AllCheck Guess=TCheck SCRF=Check GenChk RCCSD(FC)/CC-pVDZ Freq\\Wat
 er.xyz\\0,1\O,0.902865501,-0.0721047176,0.026322561\H,1.865783333,-0.0
 439198795,-0.0281452182\H,0.639711166,0.3545145971,-0.7981273428\\Vers
 ion=ES64L-G16RevA.03\State=1-A'\HF=-76.0262474\MP2=-76.2286645\MP3=-76
 .2355669\MP4D=-76.2390081\MP4DQ=-76.237182\MP4SDQ=-76.2378881\CCSD=-76
 .2382061\RMSD=4.245e-10\RMSF=5.503e-06\ZeroPoint=0.0216272\Thermal=0.0
 244619\Dipole=0.450315,0.2926776,-0.5656051\DipoleDeriv=-0.3785248,0.0
 216778,-0.0418927,0.0216777,-0.6101301,-0.1371054,-0.0418925,-0.137105
 4,-0.4161177,0.1084049,-0.0134502,0.0259927,-0.0344947,0.322142,0.0355
 514,0.0666617,0.0355514,0.2718347,0.2701093,-0.0082201,0.0158854,0.012
 8244,0.2879884,0.1015539,-0.0247834,0.1015539,0.1442835\PG=CS [SG(H2O1
 )]\NImag=0\\0.60675170,-0.04091901,0.11484630,0.07907674,-0.22196243,0
 .42893637,-0.52734226,-0.00089135,0.00172257,0.54644259,-0.03097367,-0
 .01011928,0.01956564,0.00610766,0.01096156,0.05985724,0.01956564,-0.03
 780583,-0.01180319,-0.02119113,0.04094827,-0.07940874,0.04180916,-0.08
 079699,-0.01910066,0.02486637,-0.04805473,0.09850902,0.07189150,-0.104
 72722,0.20239725,-0.00521548,-0.00084218,0.00162526,-0.06667518,0.1055
 6949,-0.13893169,0.20239725,-0.39113139,0.01007901,0.00162526,-0.00314
 201,0.12885105,-0.20402275,0.39427384\\0.00000721,0.00000468,-0.000009
 04,-0.00000721,-0.00000117,0.00000226,0.,-0.00000351,0.00000679\\\@


 GARLIC THEN HAVE POWER TO SAVE FROM DEATH
 BEAR WITH IT THOUGH IT MAKETH UNSAVORY BREATH,
 AND SCORN NOT GARLIC LIKE SOME THAT THINK
 IT ONLY MAKETH MEN WINK AND DRINK AND STINK.
   --  SIR JOHN HARRINGTON,
       "THE ENGLISHMAN'S DOCTOR", 1609
 Job cpu time:       0 days  0 hours  2 minutes 37.7 seconds.
 Elapsed time:       0 days  0 hours  0 minutes 43.7 seconds.
 File lengths (MBytes):  RWF=     50 Int=      0 D2E=      0 Chk=     39 Scr=      1
 Normal termination of Gaussian 16 at Thu Dec 16 11:35:21 2021.
