 Entering Gaussian System, Link 0=/opt/gaussian/g16/sse4/g16/g16
 Initial command:
 /opt/gaussian/g16/sse4/g16/l1.exe "/scratch/1549223/Gau-18504.inp" -scrdir="/scratch/1549223/"
 Entering Link 1 = /opt/gaussian/g16/sse4/g16/l1.exe PID=     18506.
  
 Copyright (c) 1988,1990,1992,1993,1995,1998,2003,2009,2016,
            Gaussian, Inc.  All Rights Reserved.
  
 This is part of the Gaussian(R) 16 program.  It is based on
 the Gaussian(R) 09 system (copyright 2009, Gaussian, Inc.),
 the Gaussian(R) 03 system (copyright 2003, Gaussian, Inc.),
 the Gaussian(R) 98 system (copyright 1998, Gaussian, Inc.),
 the Gaussian(R) 94 system (copyright 1995, Gaussian, Inc.),
 the Gaussian 92(TM) system (copyright 1992, Gaussian, Inc.),
 the Gaussian 90(TM) system (copyright 1990, Gaussian, Inc.),
 the Gaussian 88(TM) system (copyright 1988, Gaussian, Inc.),
 the Gaussian 86(TM) system (copyright 1986, Carnegie Mellon
 University), and the Gaussian 82(TM) system (copyright 1983,
 Carnegie Mellon University). Gaussian is a federally registered
 trademark of Gaussian, Inc.
  
 This software contains proprietary and confidential information,
 including trade secrets, belonging to Gaussian, Inc.
  
 This software is provided under written license and may be
 used, copied, transmitted, or stored only in accord with that
 written license.
  
 The following legend is applicable only to US Government
 contracts under FAR:
  
                    RESTRICTED RIGHTS LEGEND
  
 Use, reproduction and disclosure by the US Government is
 subject to restrictions as set forth in subparagraphs (a)
 and (c) of the Commercial Computer Software - Restricted
 Rights clause in FAR 52.227-19.
  
 Gaussian, Inc.
 340 Quinnipiac St., Bldg. 40, Wallingford CT 06492
  
  
 ---------------------------------------------------------------
 Warning -- This program may not be used in any manner that
 competes with the business of Gaussian, Inc. or will provide
 assistance to any competitor of Gaussian, Inc.  The licensee
 of this program is prohibited from giving any competitor of
 Gaussian, Inc. access to this program.  By using this program,
 the user acknowledges that Gaussian, Inc. is engaged in the
 business of creating and licensing software in the field of
 computational chemistry and represents and warrants to the
 licensee that it is not a competitor of Gaussian, Inc. and that
 it will not use this program in any manner prohibited above.
 ---------------------------------------------------------------
  

 Cite this work as:
 Gaussian 16, Revision A.03,
 M. J. Frisch, G. W. Trucks, H. B. Schlegel, G. E. Scuseria, 
 M. A. Robb, J. R. Cheeseman, G. Scalmani, V. Barone, 
 G. A. Petersson, H. Nakatsuji, X. Li, M. Caricato, A. V. Marenich, 
 J. Bloino, B. G. Janesko, R. Gomperts, B. Mennucci, H. P. Hratchian, 
 J. V. Ortiz, A. F. Izmaylov, J. L. Sonnenberg, D. Williams-Young, 
 F. Ding, F. Lipparini, F. Egidi, J. Goings, B. Peng, A. Petrone, 
 T. Henderson, D. Ranasinghe, V. G. Zakrzewski, J. Gao, N. Rega, 
 G. Zheng, W. Liang, M. Hada, M. Ehara, K. Toyota, R. Fukuda, 
 J. Hasegawa, M. Ishida, T. Nakajima, Y. Honda, O. Kitao, H. Nakai, 
 T. Vreven, K. Throssell, J. A. Montgomery, Jr., J. E. Peralta, 
 F. Ogliaro, M. J. Bearpark, J. J. Heyd, E. N. Brothers, K. N. Kudin, 
 V. N. Staroverov, T. A. Keith, R. Kobayashi, J. Normand, 
 K. Raghavachari, A. P. Rendell, J. C. Burant, S. S. Iyengar, 
 J. Tomasi, M. Cossi, J. M. Millam, M. Klene, C. Adamo, R. Cammi, 
 J. W. Ochterski, R. L. Martin, K. Morokuma, O. Farkas, 
 J. B. Foresman, and D. J. Fox, Gaussian, Inc., Wallingford CT, 2016.
 
 ******************************************
 Gaussian 16:  ES64L-G16RevA.03 25-Dec-2016
                14-Dec-2021 
 ******************************************
 %chk=CCSD_Methane_gaus.chk
 %nprocshared=4
 Will use up to    4 processors via shared memory.
 %mem=4GB
 -------------------------------------------------------------
 #p eomccsd=(nstate=10)/cc-pvdz guess=read geom=allcheck polar
 -------------------------------------------------------------
 1/29=7,30=1,38=101,172=1/1,6;
 2/12=2,40=1/2;
 3/5=16,11=9,14=-4,25=1,30=1,71=1,116=-2/1,2,3,8;
 4/5=1,69=2/1;
 5/5=2,38=6,98=1/2;
 8/6=1,10=1,68=101,105=8,108=10/1;
 9/41=10,42=1,68=1/14;
 8/6=4,9=120000,10=92,68=1,105=8,108=10/1,4;
 9/5=7,15=1,41=10,68=1/13;
 11/28=-16,32=3,42=3/11;
 10/5=6,13=10/2;
 6/7=2,8=2,9=2,10=2,22=-1/1;
 1/38=100/6(1);
 99/9=1/99;
 3/5=16,11=9,14=-3,25=1,30=1,71=1/1,2,3,8;
 4/5=5,16=3,69=2,133=2/1;
 5/5=2,38=5,98=1/2;
 8/6=4,9=120000,10=92,24=1,68=1,69=-2,105=8,108=10/1,4;
 9/5=7,15=1,41=10,68=1,114=-2/13;
 11/28=-16,32=3,42=3/11;
 10/5=6,13=10/2;
 6/7=2,8=2,9=2,10=2,22=-1/1;
 1/38=100/6(-8);
 99/9=1/99;
 Leave Link    1 at Tue Dec 14 23:09:06 2021, MaxMem=   536870912 cpu:               0.4 elap:               0.1
 (Enter /opt/gaussian/g16/sse4/g16/l101.exe)
 Structure from the checkpoint file:  "CCSD_Methane_gaus.chk"
 -----------
 Methane.xyz
 -----------
 Charge =  0 Multiplicity = 1
 Redundant internal coordinates found in file.  (old form).
 C,0,1.0182499866,0.0931500136,0.0314714326
 H,0,2.1214737912,0.0931521774,0.0314690649
 H,0,0.6505137017,-0.6098215622,0.7980898016
 H,0,0.6505052523,-0.2192744079,-0.9606262424
 H,0,0.6505072682,1.1085437792,0.2569559434
 Recover connectivity data from disk.
 ITRead=  0  0  0  0  0
 MicOpt= -1 -1 -1 -1 -1
                           ----------------------------
                           !    Current Parameters    !
                           ! (Angstroms and Degrees)  !
 --------------------------                            --------------------------
 ! Name  Definition              Value                                          !
 --------------------------------------------------------------------------------
 ! R1    R(1,2)                  1.1032                                         !
 ! R2    R(1,3)                  1.1032                                         !
 ! R3    R(1,4)                  1.1032                                         !
 ! R4    R(1,5)                  1.1032                                         !
 ! A1    A(2,1,3)              109.4711                                         !
 ! A2    A(2,1,4)              109.4713                                         !
 ! A3    A(2,1,5)              109.4712                                         !
 ! A4    A(3,1,4)              109.4713                                         !
 ! A5    A(3,1,5)              109.4712                                         !
 ! A6    A(4,1,5)              109.4712                                         !
 ! D1    D(2,1,4,3)            120.0                                            !
 ! D2    D(2,1,5,3)           -119.9998                                         !
 ! D3    D(2,1,5,4)            120.0001                                         !
 ! D4    D(3,1,5,4)           -120.0                                            !
 --------------------------------------------------------------------------------
 NAtoms=      5 NQM=        5 NQMF=       0 NMMI=      0 NMMIF=      0
                NMic=       0 NMicF=      0.
                    Isotopes and Nuclear Properties:
 (Nuclear quadrupole moments (NQMom) in fm**2, nuclear magnetic moments (NMagM)
  in nuclear magnetons)

  Atom         1           2           3           4           5
 IAtWgt=          12           1           1           1           1
 AtmWgt=  12.0000000   1.0078250   1.0078250   1.0078250   1.0078250
 NucSpn=           0           1           1           1           1
 AtZEff=   3.6000000   1.0000000   1.0000000   1.0000000   1.0000000
 NQMom=    0.0000000   0.0000000   0.0000000   0.0000000   0.0000000
 NMagM=    0.0000000   2.7928460   2.7928460   2.7928460   2.7928460
 AtZNuc=   6.0000000   1.0000000   1.0000000   1.0000000   1.0000000
 Leave Link  101 at Tue Dec 14 23:09:07 2021, MaxMem=   536870912 cpu:               0.8 elap:               0.2
 (Enter /opt/gaussian/g16/sse4/g16/l106.exe)
 Differentiate once with respect to electric field.
 Nuclear step= 0.001000 Angstroms, electric field step= 0.000333 atomic units, NStep=1.
 Leave Link  106 at Tue Dec 14 23:09:07 2021, MaxMem=   536870912 cpu:               0.0 elap:               0.0
 (Enter /opt/gaussian/g16/sse4/g16/l202.exe)
                          Input orientation:                          
 ---------------------------------------------------------------------
 Center     Atomic      Atomic             Coordinates (Angstroms)
 Number     Number       Type             X           Y           Z
 ---------------------------------------------------------------------
      1          6           0        1.018250    0.093150    0.031471
      2          1           0        2.121474    0.093152    0.031469
      3          1           0        0.650514   -0.609822    0.798090
      4          1           0        0.650505   -0.219274   -0.960626
      5          1           0        0.650507    1.108544    0.256956
 ---------------------------------------------------------------------
                    Distance matrix (angstroms):
                    1          2          3          4          5
     1  C    0.000000
     2  H    1.103224   0.000000
     3  H    1.103224   1.801556   0.000000
     4  H    1.103224   1.801558   1.801557   0.000000
     5  H    1.103224   1.801557   1.801556   1.801557   0.000000
 Stoichiometry    CH4
 Framework group  C1[X(CH4)]
 Deg. of freedom     9
 Full point group                 C1      NOp   1
 RotChk:  IX=0 Diff= 3.68D-10
 Largest Abelian subgroup         C1      NOp   1
 Largest concise Abelian subgroup C1      NOp   1
                         Standard orientation:                         
 ---------------------------------------------------------------------
 Center     Atomic      Atomic             Coordinates (Angstroms)
 Number     Number       Type             X           Y           Z
 ---------------------------------------------------------------------
      1          6           0        0.000000    0.000000   -0.000000
      2          1           0       -0.689577    0.378956   -0.773291
      3          1           0       -0.414327    0.215185    0.999565
      4          1           0        0.979925    0.495516   -0.106367
      5          1           0        0.123977   -1.089658   -0.119907
 ---------------------------------------------------------------------
 Rotational constants (GHZ):         154.5028483         154.5026673         154.5025945
 Leave Link  202 at Tue Dec 14 23:09:07 2021, MaxMem=   536870912 cpu:               0.0 elap:               0.0
 (Enter /opt/gaussian/g16/sse4/g16/l301.exe)
 Standard basis: CC-pVDZ (5D, 7F)
 Ernie: Thresh=  0.10000D-02 Tol=  0.10000D-05 Strict=F.
 Ernie:  2 primitive shells out of 42 were deleted.
 There are    35 symmetry adapted cartesian basis functions of A   symmetry.
 There are    34 symmetry adapted basis functions of A   symmetry.
    34 basis functions,    61 primitive gaussians,    35 cartesian basis functions
     5 alpha electrons        5 beta electrons
       nuclear repulsion energy        13.2743459152 Hartrees.
 IExCor=    0 DFT=F Ex=HF Corr=None ExCW=0 ScaHFX=  1.000000
 ScaDFX=  1.000000  1.000000  1.000000  1.000000 ScalE2=  1.000000  1.000000
 IRadAn=      5 IRanWt=     -1 IRanGd=            0 ICorTp=0 IEmpDi=  4
 NAtoms=    5 NActive=    5 NUniq=    5 SFac= 1.00D+00 NAtFMM=   60 NAOKFM=F Big=F
 Integral buffers will be    131072 words long.
 Raffenetti 1 integral format.
 Two-electron integral symmetry is turned on.
 Leave Link  301 at Tue Dec 14 23:09:07 2021, MaxMem=   536870912 cpu:               0.2 elap:               0.0
 (Enter /opt/gaussian/g16/sse4/g16/l302.exe)
 NPDir=0 NMtPBC=     1 NCelOv=     1 NCel=       1 NClECP=     1 NCelD=      1
         NCelK=      1 NCelE2=     1 NClLst=     1 CellRange=     0.0.
 One-electron integrals computed using PRISM.
 One-electron integral symmetry used in STVInt
 NBasis=    34 RedAO= T EigKep=  2.39D-02  NBF=    34
 NBsUse=    34 1.00D-06 EigRej= -1.00D+00 NBFU=    34
 Leave Link  302 at Tue Dec 14 23:09:07 2021, MaxMem=   536870912 cpu:               0.4 elap:               0.1
 (Enter /opt/gaussian/g16/sse4/g16/l303.exe)
 DipDrv:  MaxL=1.
 Leave Link  303 at Tue Dec 14 23:09:07 2021, MaxMem=   536870912 cpu:               0.1 elap:               0.0
 (Enter /opt/gaussian/g16/sse4/g16/l308.exe)
 Leave Link  308 at Tue Dec 14 23:09:07 2021, MaxMem=   536870912 cpu:               0.1 elap:               0.0
 (Enter /opt/gaussian/g16/sse4/g16/l401.exe)
 Initial guess from the checkpoint file:  "CCSD_Methane_gaus.chk"
 B after Tr=     0.000000    0.000000    0.000000
         Rot=    1.000000    0.000000   -0.000000   -0.000000 Ang=   0.00 deg.
 Guess basis will be translated and rotated to current coordinates.
 JPrj=2 DoOrth=T DoCkMO=T.
 Leave Link  401 at Tue Dec 14 23:09:08 2021, MaxMem=   536870912 cpu:               0.3 elap:               0.1
 (Enter /opt/gaussian/g16/sse4/g16/l502.exe)
 Keep R1 ints in memory in canonical form, NReq=1015602.
 FoFCou: FMM=F IPFlag=           0 FMFlag=           0 FMFlg1=           0
         NFxFlg=           0 DoJE=F BraDBF=F KetDBF=F FulRan=T
         wScrn=  0.000000 ICntrl=       600 IOpCl=  0 I1Cent=           0 NGrid=           0
         NMat0=    1 NMatS0=    595 NMatT0=    0 NMatD0=    1 NMtDS0=    0 NMtDT0=    0
 Symmetry not used in FoFCou.
 Two-electron integral symmetry not used.
 Closed shell SCF:
 Using DIIS extrapolation, IDIIS=  1040.
 NGot=   536870912 LenX=   536690353 LenY=   536688687
 Requested convergence on RMS density matrix=1.00D-08 within 128 cycles.
 Requested convergence on MAX density matrix=1.00D-06.
 Requested convergence on             energy=1.00D-06.
 No special actions if energy rises.

 Cycle   1  Pass 1  IDiag  1:
 E= -40.1982992112849    
 DIIS: error= 4.14D-10 at cycle   1 NSaved=   1.
 NSaved= 1 IEnMin= 1 EnMin= -40.1982992112849     IErMin= 1 ErrMin= 4.14D-10
 ErrMax= 4.14D-10  0.00D+00 EMaxC= 1.00D-01 BMatC= 4.46D-18 BMatP= 4.46D-18
 IDIUse=1 WtCom= 1.00D+00 WtEn= 0.00D+00
 Coeff-Com:  0.100D+01
 Coeff:      0.100D+01
 Gap=     0.731 Goal=   None    Shift=    0.000
 Skip diagonalization as Alpha Fock matrix is already diagonal.
 RMSDP=0.00D+00 MaxDP=0.00D+00              OVMax= 0.00D+00

 SCF Done:  E(RHF) =  -40.1982992113     A.U. after    1 cycles
            NFock=  1  Conv=0.00D+00     -V/T= 2.0042
 KE= 4.003036027182D+01 PE=-1.194223700351D+02 EE= 2.591936463684D+01
 Leave Link  502 at Tue Dec 14 23:09:08 2021, MaxMem=   536870912 cpu:               0.6 elap:               0.1
 (Enter /opt/gaussian/g16/sse4/g16/l801.exe)
 ExpMin= 1.22D-01 ExpMax= 6.67D+03 ExpMxC= 2.28D+02 IAcc=3 IRadAn=         5 AccDes= 0.00D+00
 HarFok:  IExCor=  205 AccDes= 0.00D+00 IRadAn=         5 IDoV=-2 UseB2=F ITyADJ=14
 ICtDFT= 12500011 ScaDFX=  1.000000  1.000000  1.000000  1.000000
 Largest valence mixing into a core orbital is  1.04D-04
 Largest core mixing into a valence orbital is  3.37D-05
 Range of M.O.s used for correlation:     2    34
 NBasis=    34 NAE=     5 NBE=     5 NFC=     1 NFV=     0
 NROrb=     33 NOA=     4 NOB=     4 NVA=    29 NVB=    29
 Leave Link  801 at Tue Dec 14 23:09:08 2021, MaxMem=   536870912 cpu:               0.3 elap:               0.1
 (Enter /opt/gaussian/g16/sse4/g16/l914.exe)
 RHF ground state
 Keep R1, R2, and R3 ints in memory in canonical form, NReq=1370562.
 FoFCou: FMM=F IPFlag=           0 FMFlag=           0 FMFlg1=           0
         NFxFlg=           0 DoJE=F BraDBF=F KetDBF=F FulRan=T
         wScrn=  0.000000 ICntrl=       600 IOpCl=  0 I1Cent=           0 NGrid=           0
         NMat0=    1 NMatS0=    595 NMatT0=    0 NMatD0=    1 NMtDS0=    0 NMtDT0=    0
 Symmetry not used in FoFCou.
 Two-electron integral symmetry not used.
 MDV=   536870912 DFT=F DoStab=F Mixed=F DoRPA=F DoScal=F NonHer=F
 Making orbital integer symmetry assigments:
 Orbital symmetries:
       Occupied  (A) (A) (A) (A) (A)
       Virtual   (A) (A) (A) (A) (A) (A) (A) (A) (A) (A) (A) (A)
                 (A) (A) (A) (A) (A) (A) (A) (A) (A) (A) (A) (A)
                 (A) (A) (A) (A) (A)
    40 initial guesses have been made.
 Convergence on wavefunction:    0.001000000000000
 Davidson Disk Diagonalization:  ConvIn= 1.00D-03 SkipCon=T Conv= 1.00D-03.
 Max sub-space:   464 roots to seek:    40 dimension of matrix:          232
 Iteration     1 Dimension    40 NMult     0 NNew     40
 CISAX will form    40 AO SS matrices at one time.
 NMat=    40 NSing=    40 JSym2X= 0.
 New state      4 was old state      7
 New state      5 was old state     10
 New state      6 was old state      9
 New state      7 was old state      5
 New state      8 was old state     12
 New state      9 was old state      4
 New state     10 was old state      6
 Excitation Energies [eV] at current iteration:
 Root      1 :    12.613796648310120
 Root      2 :    12.613801639516140
 Root      3 :    12.613808909315210
 Root      4 :    14.383592075796940
 Root      5 :    14.383596865429770
 Root      6 :    14.383600306351890
 Root      7 :    14.661995289639210
 Root      8 :    14.662001943022610
 Root      9 :    14.757379864460640
 Root     10 :    14.757382675275110
 Root     11 :    14.757385653831360
 Root     12 :    16.438979507524590
 Root     13 :    21.754686407685000
 Root     14 :    21.754693454468000
 Root     15 :    21.754696954912180
 Root     16 :    21.838527753599420
 Root     17 :    21.838537390280930
 Root     18 :    22.877275810335720
 Root     19 :    23.560987019510740
 Root     20 :    23.560994107273540
 Root     21 :    23.561000991121640
 Root     22 :    24.121049431963640
 Root     23 :    25.492528687447880
 Root     24 :    25.492530441096790
 Root     25 :    25.492532413124110
 Root     26 :    28.685026628556390
 Root     27 :    28.685031194148660
 Root     28 :    28.685034633406790
 Root     29 :    28.870866319594600
 Root     30 :    28.870873273020020
 Root     31 :    29.425560061920060
 Root     32 :    29.425562539566220
 Root     33 :    29.425565417721590
 Root     34 :    30.843646457779280
 Root     35 :    30.843651270351990
 Root     36 :    30.843659417438700
 Root     37 :    32.680107511995640
 Root     38 :    32.680110517618170
 Root     39 :    32.680118022920470
 Root     40 :    35.413673871583780
 Iteration     2 Dimension    80 NMult    40 NNew     40
 CISAX will form    40 AO SS matrices at one time.
 NMat=    40 NSing=    40 JSym2X= 0.
 Root      1 not converged, maximum delta is    0.011084664243690
 Root      2 not converged, maximum delta is    0.011078432929205
 Root      3 not converged, maximum delta is    0.011080383164699
 Root      4 not converged, maximum delta is    0.007568807698771
 Root      5 not converged, maximum delta is    0.008306566401216
 Root      6 not converged, maximum delta is    0.008248518844983
 Root      7 not converged, maximum delta is    0.003843127025547
 Root      8 not converged, maximum delta is    0.003982462737183
 Root      9 not converged, maximum delta is    0.021005685742432
 Root     10 not converged, maximum delta is    0.017018916331880
 Excitation Energies [eV] at current iteration:
 Root      1 :    12.595723435494700   Change is   -0.018073212815420
 Root      2 :    12.595728420687280   Change is   -0.018073218828858
 Root      3 :    12.595735673823560   Change is   -0.018073235491647
 Root      4 :    14.363797787427600   Change is   -0.019794288369345
 Root      5 :    14.363802578995170   Change is   -0.019794286434591
 Root      6 :    14.363806016475450   Change is   -0.019794289876436
 Root      7 :    14.649180350272500   Change is   -0.012814939366711
 Root      8 :    14.649187006130610   Change is   -0.012814936892001
 Root      9 :    14.702768636936960   Change is   -0.054611227523685
 Root     10 :    14.702771498746240   Change is   -0.054611176528868
 Root     11 :    14.702774555504560   Change is   -0.054611098326799
 Root     12 :    16.318968466858660   Change is   -0.120011040665926
 Root     13 :    21.729036286624200   Change is   -0.025650121060800
 Root     14 :    21.729043263729060   Change is   -0.025650190738939
 Root     15 :    21.729046728400580   Change is   -0.025650226511609
 Root     16 :    21.829228068004670   Change is   -0.009299685594741
 Root     17 :    21.829237680484500   Change is   -0.009299709796429
 Root     18 :    22.718550579390620   Change is   -0.158725230945104
 Root     19 :    23.307635521223260   Change is   -0.253351498287479
 Root     20 :    23.307642348172180   Change is   -0.253351759101360
 Root     21 :    23.307649056228250   Change is   -0.253351934893393
 Root     22 :    23.960189696175640   Change is   -0.160859735788003
 Root     23 :    25.366484594298850   Change is   -0.126044093149023
 Root     24 :    25.366486318768450   Change is   -0.126044122328338
 Root     25 :    25.366488242997030   Change is   -0.126044170127083
 Root     26 :    28.647815139202350   Change is   -0.037211489354038
 Root     27 :    28.647819683432250   Change is   -0.037211510716409
 Root     28 :    28.647823098773280   Change is   -0.037211534633506
 Root     29 :    28.831093822938960   Change is   -0.039772496655643
 Root     30 :    28.831100776434560   Change is   -0.039772496585463
 Root     31 :    28.988558152644540   Change is   -0.437001909275522
 Root     32 :    28.988561054954990   Change is   -0.437001484611238
 Root     33 :    28.988563867938050   Change is   -0.437001549783532
 Root     34 :    30.775471758126450   Change is   -0.068174699652826
 Root     35 :    30.775476537288760   Change is   -0.068174733063232
 Root     36 :    30.775484638260460   Change is   -0.068174779178244
 Root     37 :    32.587035496811430   Change is   -0.093072015184214
 Root     38 :    32.587038627181900   Change is   -0.093071890436269
 Root     39 :    32.587046448452690   Change is   -0.093071574467780
 Root     40 :    34.470286441375380   Change is   -0.943387430208396
 Iteration     3 Dimension    90 NMult    80 NNew     10
 CISAX will form    10 AO SS matrices at one time.
 NMat=    10 NSing=    10 JSym2X= 0.
 Root      1 has converged.
 Root      2 has converged.
 Root      3 has converged.
 Root      4 not converged, maximum delta is    0.001304267786242
 Root      5 not converged, maximum delta is    0.001434918398963
 Root      6 not converged, maximum delta is    0.001424029247727
 Root      7 has converged.
 Root      8 has converged.
 Root      9 has converged.
 Root     10 has converged.
 Excitation Energies [eV] at current iteration:
 Root      1 :    12.595714310638830   Change is   -0.000009124855874
 Root      2 :    12.595719299652180   Change is   -0.000009121035106
 Root      3 :    12.595726551779110   Change is   -0.000009122044452
 Root      4 :    14.363559791638880   Change is   -0.000237995788715
 Root      5 :    14.363564583705140   Change is   -0.000237995290036
 Root      6 :    14.363568021726930   Change is   -0.000237994748527
 Root      7 :    14.649174696633870   Change is   -0.000005653638633
 Root      8 :    14.649181352259800   Change is   -0.000005653870811
 Root      9 :    14.702614933732130   Change is   -0.000153703204824
 Root     10 :    14.702617794470200   Change is   -0.000153704276047
 Iteration     4 Dimension    93 NMult    90 NNew      3
 CISAX will form     3 AO SS matrices at one time.
 NMat=     3 NSing=     3 JSym2X= 0.
 Root      1 has converged.
 Root      2 has converged.
 Root      3 has converged.
 Root      4 has converged.
 Root      5 has converged.
 Root      6 has converged.
 Root      7 has converged.
 Root      8 has converged.
 Root      9 has converged.
 Root     10 has converged.
 Excitation Energies [eV] at current iteration:
 Root      1 :    12.595714310638800   Change is   -0.000000000000027
 Root      2 :    12.595719299651540   Change is   -0.000000000000637
 Root      3 :    12.595726551778910   Change is   -0.000000000000198
 Root      4 :    14.363558980368080   Change is   -0.000000811270806
 Root      5 :    14.363563771747760   Change is   -0.000000811957380
 Root      6 :    14.363567209315360   Change is   -0.000000812411565
 Root      7 :    14.649174696630840   Change is   -0.000000000003027
 Root      8 :    14.649181352250470   Change is   -0.000000000009332
 Root      9 :    14.702614933731740   Change is   -0.000000000000393
 Root     10 :    14.702617794470070   Change is   -0.000000000000124
 Convergence achieved on expansion vectors.
 ***********************************************************************
 Excited states from <AA,BB:AA,BB> singles matrix:
 ***********************************************************************
 
 1PDM for each excited state written to RWF  633
 Ground to excited state transition densities written to RWF  633
 Ground to excited state transition electric dipole moments (Au):
       state          X           Y           Z        Dip. S.      Osc.
         1        -0.0134     -0.0285      1.1380      1.2960      0.3999
         2         0.0579      1.1365      0.0293      1.2959      0.3999
         3         1.1369     -0.0582      0.0119      1.2960      0.3999
         4        -0.0000     -0.0000      0.0000      0.0000      0.0000
         5         0.0000     -0.0001      0.0000      0.0000      0.0000
         6        -0.0000     -0.0000      0.0000      0.0000      0.0000
         7         0.0000      0.0000     -0.0000      0.0000      0.0000
         8        -0.0000      0.0000     -0.0000      0.0000      0.0000
         9        -0.5985      0.5839      0.5642      1.0176      0.3665
        10         0.4362     -0.3600      0.8353      1.0176      0.3665
 Ground to excited state transition velocity dipole moments (Au):
       state          X           Y           Z        Dip. S.      Osc.
         1         0.0059      0.0126     -0.5060      0.2562      0.3690
         2        -0.0257     -0.5053     -0.0130      0.2562      0.3689
         3        -0.5055      0.0258     -0.0053      0.2562      0.3690
         4         0.0000      0.0000     -0.0000      0.0000      0.0000
         5         0.0000      0.0000     -0.0000      0.0000      0.0000
         6         0.0000      0.0000      0.0000      0.0000      0.0000
         7         0.0000     -0.0000      0.0000      0.0000      0.0000
         8         0.0000     -0.0000      0.0000      0.0000      0.0000
         9         0.2704     -0.2638     -0.2549      0.2077      0.2563
        10        -0.1970      0.1626     -0.3774      0.2077      0.2563
 Ground to excited state transition magnetic dipole moments (Au):
       state          X           Y           Z
         1         0.0000     -0.0000      0.0000
         2         0.0001     -0.0001     -0.0001
         3        -0.0001     -0.0000     -0.0000
         4         0.8000     -0.0871      0.0019
         5        -0.0869     -0.7989     -0.0438
         6        -0.0066     -0.0433      0.8036
         7        -0.0000      0.0000     -0.0000
         8        -0.0000     -0.0000      0.0000
         9         0.0000     -0.0000     -0.0000
        10        -0.0000      0.0000      0.0000
 Ground to excited state transition velocity quadrupole moments (Au):
       state          XX          YY          ZZ          XY          XZ          YZ
         1         0.1900      0.1226     -0.3127     -0.0369      0.4771     -0.2565
         2        -0.4086      0.6456     -0.2370     -0.1796     -0.0242      0.1281
         3        -0.2970     -0.1903      0.4872     -0.3894      0.1836     -0.0553
         4        -0.0000     -0.0000      0.0001      0.0001     -0.0001      0.0001
         5        -0.0000     -0.0001      0.0001      0.0000     -0.0001     -0.0001
         6         0.0000      0.0000      0.0000     -0.0000      0.0000     -0.0000
         7         0.0038     -0.0035     -0.0004      0.0008      0.0089      0.0174
         8         0.0141     -0.0036     -0.0104     -0.0140     -0.0060      0.0016
         9         0.0760      0.7151     -0.7911      0.1549      0.1781     -0.0464
        10         0.1955     -0.2447      0.0492     -0.1998      0.6378     -0.3639
 <0|del|b> * <b|rxdel|0> + <0|del|b> * <b|delr+rdel|0>
 Rotatory Strengths (R) in cgs (10**-40 erg-esu-cm/Gauss)
       state          XX          YY          ZZ    R(velocity)    E-M Angle
         1         9.6491    -15.4196      5.7500     -0.0068       90.00
         2        -7.5321     -4.3043     11.8838      0.0158       90.00
         3        -2.0599     19.7976    -17.6947      0.0143       90.00
         4        -0.0007      0.0145      0.0138      0.0092       90.00
         5        -0.0240     -0.0002     -0.0262     -0.0168       90.00
         6         0.0028      0.0028     -0.0001      0.0019       90.00
         7         0.0001      0.0002     -0.0002     -0.0000       90.00
         8        -0.0001      0.0001     -0.0000     -0.0000       90.00
         9         4.9183     17.6299    -22.5343      0.0047       90.00
        10       -18.5385     -2.4207     20.9599      0.0003       90.00
 1/2[<0|r|b>*<b|rxdel|0> + (<0|rxdel|b>*<b|r|0>)*]
 Rotatory Strengths (R) in cgs (10**-40 erg-esu-cm/Gauss)
       state          XX          YY          ZZ     R(length)
         1         0.0002     -0.0001     -0.0214     -0.0071
         2        -0.0027      0.0508      0.0012      0.0164
         3         0.0455     -0.0009      0.0001      0.0149
         4         0.0078     -0.0004     -0.0000      0.0025
         5         0.0004     -0.0286      0.0008     -0.0091
         6        -0.0000     -0.0001     -0.0017     -0.0006
         7         0.0000     -0.0000     -0.0000     -0.0000
         8        -0.0000      0.0000      0.0000     -0.0000
         9         0.0135      0.0006      0.0026      0.0056
        10         0.0000      0.0025     -0.0016      0.0003
  1/2[<0|del|b>*<b|r|0> + (<0|r|b>*<b|del|0>)*] (Au)
       state          X           Y           Z        Dip. S.   Osc.(frdel)
         1        -0.0001     -0.0004     -0.5758      0.5762      0.3841
         2        -0.0015     -0.5743     -0.0004      0.5762      0.3841
         3        -0.5746     -0.0015     -0.0001      0.5762      0.3841
         4        -0.0000     -0.0000     -0.0000      0.0000      0.0000
         5         0.0000     -0.0000     -0.0000      0.0000      0.0000
         6        -0.0000     -0.0000      0.0000      0.0000      0.0000
         7         0.0000     -0.0000     -0.0000      0.0000      0.0000
         8        -0.0000     -0.0000     -0.0000      0.0000      0.0000
         9        -0.1618     -0.1541     -0.1438      0.4597      0.3065
        10        -0.0859     -0.0586     -0.3152      0.4597      0.3065

 Excitation energies and oscillator strengths:
 
 Excited State   1:      Singlet-A     12.5957 eV   98.43 nm  f=0.3999  <S**2>=0.000
       5 ->  6         0.68288
       5 ->  9         0.10071
 This state for optimization and/or second-order correction.
 Total Energy, E(CIS/TDA) =  -39.7354152274    
 Copying the excited state density for this state as the 1-particle RhoCI density.
 
 Excited State   2:      Singlet-A     12.5957 eV   98.43 nm  f=0.3999  <S**2>=0.000
       4 ->  6         0.68249
       4 ->  9        -0.12363
 
 Excited State   3:      Singlet-A     12.5957 eV   98.43 nm  f=0.3999  <S**2>=0.000
       3 ->  6         0.68261
 
 Excited State   4:      Singlet-A     14.3636 eV   86.32 nm  f=0.0000  <S**2>=0.000
       4 ->  8         0.44649
       4 ->  9         0.20419
       5 ->  7         0.25066
       5 ->  8         0.16981
       5 ->  9        -0.38689
 
 Excited State   5:      Singlet-A     14.3636 eV   86.32 nm  f=0.0000  <S**2>=0.000
       3 ->  8         0.44801
       3 ->  9         0.20064
       5 ->  7         0.42230
       5 ->  8        -0.11452
       5 ->  9         0.22334
 
 Excited State   6:      Singlet-A     14.3636 eV   86.32 nm  f=0.0000  <S**2>=0.000
       3 ->  7        -0.24058
       3 ->  8        -0.16821
       3 ->  9         0.39391
       4 ->  7         0.42805
       4 ->  8        -0.11028
       4 ->  9         0.21433
 
 Excited State   7:      Singlet-A     14.6492 eV   84.64 nm  f=0.0000  <S**2>=0.000
       3 ->  8        -0.17020
       4 ->  8        -0.43257
       4 ->  9        -0.13462
       5 ->  7         0.37920
       5 ->  8         0.16557
       5 ->  9        -0.25702
 
 Excited State   8:      Singlet-A     14.6492 eV   84.64 nm  f=0.0000  <S**2>=0.000
       3 ->  7         0.20382
       3 ->  9         0.48325
       4 ->  7        -0.34364
       5 ->  7        -0.10389
       5 ->  8         0.27445
 
 Excited State   9:      Singlet-A     14.7026 eV   84.33 nm  f=0.3665  <S**2>=0.000
       3 ->  6         0.10798
       4 ->  7         0.27416
       4 ->  8         0.19561
       4 ->  9        -0.29947
       5 ->  8         0.38763
       5 ->  9         0.29190
 
 Excited State  10:      Singlet-A     14.7026 eV   84.33 nm  f=0.3665  <S**2>=0.000
       3 ->  8        -0.42881
       4 ->  7        -0.15386
       4 ->  8         0.11418
       4 ->  9         0.18489
       5 ->  6        -0.14209
       5 ->  7         0.26655
       5 ->  8        -0.19234
       5 ->  9         0.30043
 SavETr:  write IOETrn=   770 NScale= 10 NData=  16 NLR=1 NState=   10 LETran=     190.
 Leave Link  914 at Tue Dec 14 23:09:08 2021, MaxMem=   536870912 cpu:               0.9 elap:               0.2
 (Enter /opt/gaussian/g16/sse4/g16/l801.exe)
 Windowed orbitals will be sorted by symmetry type.
 Range of M.O.s used for correlation:     2    34
 NBasis=    34 NAE=     5 NBE=     5 NFC=     1 NFV=     0
 NROrb=     33 NOA=     4 NOB=     4 NVA=    29 NVB=    29
 MOs do not have abelian symmetry and doing EOM, so symmetry turned off.
 Leave Link  801 at Tue Dec 14 23:09:08 2021, MaxMem=   536870912 cpu:               0.1 elap:               0.0
 (Enter /opt/gaussian/g16/sse4/g16/l804.exe)
 Closed-shell transformation, MDV=   536870912 ITran=4 ISComp=1.
 Semi-Direct transformation.
 ModeAB=           2 MOrb=             4 LenV=     536671785
 LASXX=        63705 LTotXX=       63705 LenRXX=       63705
 LTotAB=       69526 MaxLAS=       83160 LenRXY=       83160
 NonZer=      127410 LenScr=      785920 LnRSAI=           0
 LnScr1=           0 LExtra=           0 Total=       932785
 MaxDsk=          -1 SrtSym=           F ITran=            4
 DoSDTr:  NPSUse=  4
 JobTyp=0 Pass  1:  I=   1 to   4.
 (rs|ai) integrals will be sorted in core.
 Complete sort for first half transformation.
 First half transformation complete.
 Complete sort for second half transformation.
 Second half transformation complete.
 Spin components of T(2) and E(2):
     alpha-alpha T2 =       0.5356509415D-02 E2=     -0.1512778604D-01
     alpha-beta  T2 =       0.4437178124D-01 E2=     -0.1315849006D+00
     beta-beta   T2 =       0.5356509415D-02 E2=     -0.1512778604D-01
 ANorm=    0.1027173208D+01
 E2 =    -0.1618404726D+00 EUMP2 =    -0.40360139683932D+02
 Leave Link  804 at Tue Dec 14 23:09:09 2021, MaxMem=   536870912 cpu:               0.3 elap:               0.1
 (Enter /opt/gaussian/g16/sse4/g16/l913.exe)
 CIDS:  MDV=   536870912.
 Frozen-core window:  NFC=   1 NFV=   0.
 IFCWin=0 IBDFC=1 NFBD=     0     0 NFCmp=     0     0 NFFFC=     0     0
 Using DD3R+UMP44R for 1st iteration.
 Using DD4RQ for 2nd and later iterations.
 Keep R2 and R3 ints in memory in canonical form, NReq=1195676.
 FoFCou: FMM=F IPFlag=           0 FMFlag=           0 FMFlg1=           0
         NFxFlg=           0 DoJE=F BraDBF=F KetDBF=F FulRan=T
         wScrn=  0.000000 ICntrl=       600 IOpCl=  0 I1Cent=           0 NGrid=           0
         NMat0=    1 NMatS0=    595 NMatT0=    0 NMatD0=    1 NMtDS0=    0 NMtDT0=    0
 Symmetry not used in FoFCou.
 Two-electron integral symmetry not used.
 CIDS: In Core Option IDoMem=           1.
 Coupled Cluster theory with single and double substitutions
 ===========================================================
 Iterations=  50 Convergence= 0.100D-07
 Produce multiple copies of IABC intergrals
 Iteration Nr.   1
 **********************
 DD1Dir will call FoFMem   1 times, MxPair=        20
 NAB=    10 NAA=     0 NBB=     0.
 MP4(R+Q)=  0.26364757D-02
 Maximum subspace dimension=  5
 A-vector RMS=  2.8784037D-03 Max=  4.6732602D-03 conv= 1.00D-06.
 RLE energy=       -0.1817154090
 E3=       -0.20365080D-01        EUMP3=      -0.40380504764D+02
 E4(DQ)=   -0.23198939D-02        UMP4(DQ)=   -0.40382824658D+02
 E4(SDQ)=  -0.28890965D-02        UMP4(SDQ)=  -0.40383393860D+02
 VARIATIONAL ENERGIES WITH THE FIRST-ORDER WAVEFUNCTION:
 DE(Corr)= -0.17954161     E(Corr)=     -40.377840825    
 NORM(A)=   0.10348731D+01
 Iteration Nr.   2
 **********************
 DD1Dir will call FoFMem   1 times, MxPair=        20
 NAB=    10 NAA=     0 NBB=     0.
 A-vector RMS=  5.3086135D-04 Max=  1.2024725D-03 conv= 1.00D-06.
 RLE energy=       -0.1852665730
 DE(Corr)= -0.18427100     E(CORR)=     -40.382570209     Delta=-4.73D-03
 NORM(A)=   0.10367896D+01
 Iteration Nr.   3
 **********************
 DD1Dir will call FoFMem   1 times, MxPair=        20
 NAB=    10 NAA=     0 NBB=     0.
 A-vector RMS=  1.8598580D-04 Max=  2.8991069D-04 conv= 1.00D-06.
 RLE energy=       -0.1855185379
 DE(Corr)= -0.18531575     E(CORR)=     -40.383614965     Delta=-1.04D-03
 NORM(A)=   0.10371068D+01
 Iteration Nr.   4
 **********************
 DD1Dir will call FoFMem   1 times, MxPair=        20
 NAB=    10 NAA=     0 NBB=     0.
 A-vector RMS=  3.0190408D-05 Max=  6.6090698D-05 conv= 1.00D-06.
 RLE energy=       -0.1855543972
 DE(Corr)= -0.18553340     E(CORR)=     -40.383832610     Delta=-2.18D-04
 NORM(A)=   0.10371463D+01
 Iteration Nr.   5
 **********************
 DD1Dir will call FoFMem   1 times, MxPair=        20
 NAB=    10 NAA=     0 NBB=     0.
 A-vector RMS=  7.2387147D-06 Max=  1.5971689D-05 conv= 1.00D-06.
 RLE energy=       -0.1855479676
 DE(Corr)= -0.18554913     E(CORR)=     -40.383848338     Delta=-1.57D-05
 NORM(A)=   0.10371445D+01
 Iteration Nr.   6
 **********************
 DD1Dir will call FoFMem   1 times, MxPair=        20
 NAB=    10 NAA=     0 NBB=     0.
 A-vector RMS=  1.5337935D-06 Max=  3.5813561D-06 conv= 1.00D-06.
 RLE energy=       -0.1855490203
 DE(Corr)= -0.18554885     E(CORR)=     -40.383848064     Delta= 2.74D-07
 NORM(A)=   0.10371448D+01
 Iteration Nr.   7
 **********************
 DD1Dir will call FoFMem   1 times, MxPair=        20
 NAB=    10 NAA=     0 NBB=     0.
 A-vector RMS=  3.2313223D-07 Max=  1.1672890D-06 conv= 1.00D-06.
 RLE energy=       -0.1855490367
 DE(Corr)= -0.18554897     E(CORR)=     -40.383848186     Delta=-1.22D-07
 NORM(A)=   0.10371448D+01
 Iteration Nr.   8
 **********************
 DD1Dir will call FoFMem   1 times, MxPair=        20
 NAB=    10 NAA=     0 NBB=     0.
 A-vector RMS=  6.7429496D-08 Max=  2.6219413D-07 conv= 1.00D-06.
 RLE energy=       -0.1855489928
 DE(Corr)= -0.18554899     E(CORR)=     -40.383848205     Delta=-1.90D-08
 NORM(A)=   0.10371448D+01
 Iteration Nr.   9
 **********************
 DD1Dir will call FoFMem   1 times, MxPair=        20
 NAB=    10 NAA=     0 NBB=     0.
 A-vector RMS=  2.1318793D-08 Max=  8.4762157D-08 conv= 1.00D-06.
 RLE energy=       -0.1855489801
 DE(Corr)= -0.18554898     E(CORR)=     -40.383848195     Delta= 1.05D-08
 NORM(A)=   0.10371448D+01
 Iteration Nr.  10
 **********************
 DD1Dir will call FoFMem   1 times, MxPair=        20
 NAB=    10 NAA=     0 NBB=     0.
 A-vector RMS=  4.6814027D-09 Max=  1.5080222D-08 conv= 1.00D-06.
 RLE energy=       -0.1855489771
 DE(Corr)= -0.18554898     E(CORR)=     -40.383848190     Delta= 4.64D-09
 NORM(A)=   0.10371448D+01
 CI/CC converged in   10 iterations to DelEn= 4.64D-09 Conv= 1.00D-08 ErrA1= 4.68D-09 Conv= 1.00D-06
 Wavefunction amplitudes converged. E(Corr)=     -40.383848190    
 Largest amplitude= 3.25D-02

 Z-amplitude iterations

 Iteration Nr.   1
 **********************
 DD1Dir will call FoFMem   1 times, MxPair=        20
 NAB=    10 NAA=     0 NBB=     0.
 A-vector RMS=  1.0451309D-03 Max=  2.1281338D-03 conv= 1.00D-06.
 RLE energy=       -0.1855488027
 DE(Z)= -0.18164328     E(Z)=     -40.379942492     Delta= 3.91D-03
 NORM(A)=   0.10371447D+01
 Iteration Nr.   2
 **********************
 DD1Dir will call FoFMem   1 times, MxPair=        20
 NAB=    10 NAA=     0 NBB=     0.
 A-vector RMS=  1.0450918D-03 Max=  2.1280530D-03 conv= 1.00D-06.
 RLE energy=       -0.1855490549
 DE(Z)= -0.18164325     E(Z)=     -40.379942465     Delta= 2.69D-08
 NORM(A)=   0.10371448D+01
 Iteration Nr.   3
 **********************
 DD1Dir will call FoFMem   1 times, MxPair=        20
 NAB=    10 NAA=     0 NBB=     0.
 A-vector RMS=  1.0451476D-03 Max=  2.1281680D-03 conv= 1.00D-06.
 RLE energy=       -0.1855488677
 DE(Z)= -0.18164329     E(Z)=     -40.379942504     Delta=-3.81D-08
 NORM(A)=   0.10371447D+01
 Iteration Nr.   4
 **********************
 DD1Dir will call FoFMem   1 times, MxPair=        20
 NAB=    10 NAA=     0 NBB=     0.
 A-vector RMS=  1.0451061D-03 Max=  2.1280832D-03 conv= 1.00D-06.
 RLE energy=       -0.1855489464
 DE(Z)= -0.18164326     E(Z)=     -40.379942476     Delta= 2.77D-08
 NORM(A)=   0.10371448D+01
 Iteration Nr.   5
 **********************
 DD1Dir will call FoFMem   1 times, MxPair=        20
 NAB=    10 NAA=     0 NBB=     0.
 A-vector RMS=  1.0451237D-03 Max=  2.1281191D-03 conv= 1.00D-06.
 RLE energy=       -0.1809230110
 DE(Z)= -0.18164328     E(Z)=     -40.379942488     Delta=-1.16D-08
 NORM(A)=   0.10352662D+01
 Iteration Nr.   6
 **********************
 DD1Dir will call FoFMem   1 times, MxPair=        20
 NAB=    10 NAA=     0 NBB=     0.
 A-vector RMS=  7.9794016D-05 Max=  1.4152341D-04 conv= 1.00D-06.
 RLE energy=       -0.1809690631
 DE(Z)= -0.18096233     E(Z)=     -40.379261540     Delta= 6.81D-04
 NORM(A)=   0.10352779D+01
 Iteration Nr.   7
 **********************
 DD1Dir will call FoFMem   1 times, MxPair=        20
 NAB=    10 NAA=     0 NBB=     0.
 A-vector RMS=  1.3513460D-05 Max=  2.9669245D-05 conv= 1.00D-06.
 RLE energy=       -0.1809684625
 DE(Z)= -0.18096603     E(Z)=     -40.379265236     Delta=-3.70D-06
 NORM(A)=   0.10352786D+01
 Iteration Nr.   8
 **********************
 DD1Dir will call FoFMem   1 times, MxPair=        20
 NAB=    10 NAA=     0 NBB=     0.
 A-vector RMS=  3.7665591D-06 Max=  8.3664325D-06 conv= 1.00D-06.
 RLE energy=       -0.1809677827
 DE(Z)= -0.18096774     E(Z)=     -40.379266955     Delta=-1.72D-06
 NORM(A)=   0.10352785D+01
 Iteration Nr.   9
 **********************
 DD1Dir will call FoFMem   1 times, MxPair=        20
 NAB=    10 NAA=     0 NBB=     0.
 A-vector RMS=  5.4877523D-07 Max=  1.0654792D-06 conv= 1.00D-06.
 RLE energy=       -0.1809678112
 DE(Z)= -0.18096778     E(Z)=     -40.379266993     Delta=-3.81D-08
 NORM(A)=   0.10352787D+01
 Iteration Nr.  10
 **********************
 DD1Dir will call FoFMem   1 times, MxPair=        20
 NAB=    10 NAA=     0 NBB=     0.
 A-vector RMS=  1.3283574D-07 Max=  2.9352675D-07 conv= 1.00D-06.
 RLE energy=       -0.1809678537
 DE(Z)= -0.18096785     E(Z)=     -40.379267061     Delta=-6.78D-08
 NORM(A)=   0.10352788D+01
 Iteration Nr.  11
 **********************
 DD1Dir will call FoFMem   1 times, MxPair=        20
 NAB=    10 NAA=     0 NBB=     0.
 A-vector RMS=  1.3559280D-08 Max=  2.7195279D-08 conv= 1.00D-06.
 RLE energy=       -0.1809678684
 DE(Z)= -0.18096786     E(Z)=     -40.379267075     Delta=-1.41D-08
 NORM(A)=   0.10352788D+01
 Iteration Nr.  12
 **********************
 DD1Dir will call FoFMem   1 times, MxPair=        20
 NAB=    10 NAA=     0 NBB=     0.
 A-vector RMS=  3.5060054D-09 Max=  1.0051039D-08 conv= 1.00D-06.
 RLE energy=       -0.1809678667
 DE(Z)= -0.18096787     E(Z)=     -40.379267078     Delta=-2.67D-09
 NORM(A)=   0.10352788D+01
 CI/CC converged in   12 iterations to DelEn=-2.67D-09 Conv= 1.00D-08 ErrA1= 3.51D-09 Conv= 1.00D-06
 Z-amplitudes converged.

 ======================================

                EOM-CCSD               

 ======================================

 Processing Closed Shell Singlets

 *****************************************************
 Starting Irrep 1
 Dimension of the space: 
 Singles AA=     116, Singles BB=     116, Doubles AA=       2436,
 Doubles AB=       13456, Doubles BB=       2436, Total=       13572
 EnOnly = F DoTwo = F, DoSame = F, DoRgt = T, DoLft = F, DoTrip = F,
 MSek =  10, InMSek =  10, MConv =  10, MaxMI =  200, Conv =  1.00D-06

 Right Eigenvector.

 Vector Nr.   1
 **********************
 DD1Dir will call FoFMem   1 times, MxPair=        20
 NAB=    10 NAA=     0 NBB=     0.
 Vector Nr.   2
 **********************
 DD1Dir will call FoFMem   1 times, MxPair=        20
 NAB=    10 NAA=     0 NBB=     0.
 Vector Nr.   3
 **********************
 DD1Dir will call FoFMem   1 times, MxPair=        20
 NAB=    10 NAA=     0 NBB=     0.
 Vector Nr.   4
 **********************
 DD1Dir will call FoFMem   1 times, MxPair=        20
 NAB=    10 NAA=     0 NBB=     0.
 Vector Nr.   5
 **********************
 DD1Dir will call FoFMem   1 times, MxPair=        20
 NAB=    10 NAA=     0 NBB=     0.
 Vector Nr.   6
 **********************
 DD1Dir will call FoFMem   1 times, MxPair=        20
 NAB=    10 NAA=     0 NBB=     0.
 Vector Nr.   7
 **********************
 DD1Dir will call FoFMem   1 times, MxPair=        20
 NAB=    10 NAA=     0 NBB=     0.
 Vector Nr.   8
 **********************
 DD1Dir will call FoFMem   1 times, MxPair=        20
 NAB=    10 NAA=     0 NBB=     0.
 Vector Nr.   9
 **********************
 DD1Dir will call FoFMem   1 times, MxPair=        20
 NAB=    10 NAA=     0 NBB=     0.
 Vector Nr.  10
 **********************
 DD1Dir will call FoFMem   1 times, MxPair=        20
 NAB=    10 NAA=     0 NBB=     0.
 Actual subspace dimension: NDim=  10, NOld=   0, NNew=  10
 Right eigenvalues (eV) at iteration    1
 Root  1 =   14.150800017444
 Root  2 =   14.150815377737
 Root  3 =   14.150817396684
 Root  4 =   16.052654287830
 Root  5 =   16.052688921791
 Root  6 =   16.052719044346
 Root  7 =   16.300138488936
 Root  8 =   16.300150230359
 Root  9 =   16.322180245913
 Root 10 =   16.322188062805
 Norms of the Right Residuals
 Root I=  1 Norm= 4.29D-01 Max= 5.39D-02
 Root I=  2 Norm= 4.55D-01 Max= 7.64D-02
 Root I=  3 Norm= 4.36D-01 Max= 5.09D-02
 Root I=  4 Norm= 4.48D-01 Max= 3.69D-02
 Root I=  5 Norm= 4.45D-01 Max= 4.17D-02
 Root I=  6 Norm= 4.45D-01 Max= 3.80D-02
 Root I=  7 Norm= 4.30D-01 Max= 4.00D-02
 Root I=  8 Norm= 4.30D-01 Max= 4.64D-02
 Root I=  9 Norm= 4.45D-01 Max= 3.97D-02
 Root I= 10 Norm= 4.45D-01 Max= 4.57D-02
 New vectors created:  10

 Right Eigenvector.

 Vector Nr.  11
 **********************
 DD1Dir will call FoFMem   1 times, MxPair=        20
 NAB=    10 NAA=     0 NBB=     0.
 Vector Nr.  12
 **********************
 DD1Dir will call FoFMem   1 times, MxPair=        20
 NAB=    10 NAA=     0 NBB=     0.
 Vector Nr.  13
 **********************
 DD1Dir will call FoFMem   1 times, MxPair=        20
 NAB=    10 NAA=     0 NBB=     0.
 Vector Nr.  14
 **********************
 DD1Dir will call FoFMem   1 times, MxPair=        20
 NAB=    10 NAA=     0 NBB=     0.
 Vector Nr.  15
 **********************
 DD1Dir will call FoFMem   1 times, MxPair=        20
 NAB=    10 NAA=     0 NBB=     0.
 Vector Nr.  16
 **********************
 DD1Dir will call FoFMem   1 times, MxPair=        20
 NAB=    10 NAA=     0 NBB=     0.
 Vector Nr.  17
 **********************
 DD1Dir will call FoFMem   1 times, MxPair=        20
 NAB=    10 NAA=     0 NBB=     0.
 Vector Nr.  18
 **********************
 DD1Dir will call FoFMem   1 times, MxPair=        20
 NAB=    10 NAA=     0 NBB=     0.
 Vector Nr.  19
 **********************
 DD1Dir will call FoFMem   1 times, MxPair=        20
 NAB=    10 NAA=     0 NBB=     0.
 Vector Nr.  20
 **********************
 DD1Dir will call FoFMem   1 times, MxPair=        20
 NAB=    10 NAA=     0 NBB=     0.
 Actual subspace dimension: NDim=  20, NOld=  10, NNew=  10
 Right eigenvalues (eV) at iteration    2
 Root  1 =   12.193458768611
 Root  2 =   12.193466908518
 Root  3 =   12.236809825461
 Root  4 =   13.868989846477
 Root  5 =   13.868990424542
 Root  6 =   13.868990424542
 Root  7 =   14.166738399990
 Root  8 =   14.166743285853
 Root  9 =   14.310962963407
 Root 10 =   14.310962963407
 Right complex eigenvalues found among the MSek states:   4
 Norms of the Right Residuals
 Root I=  1 Norm= 8.65D-02 Max= 9.20D-03
 Root I=  2 Norm= 8.65D-02 Max= 7.70D-03
 Root I=  3 Norm= 7.13D-02 Max= 8.07D-03
 Root I=  4 Norm= 8.96D-02 Max= 8.43D-03
 Root I=  5 Norm= 8.93D-02 Max= 7.13D-03
 Root I=  6 Norm= 9.01D-02 Max= 6.63D-03
 Root I=  7 Norm= 9.14D-02 Max= 8.02D-03
 Root I=  8 Norm= 9.14D-02 Max= 7.93D-03
 Root I=  9 Norm= 7.80D-02 Max= 6.13D-03
 Root I= 10 Norm= 7.80D-02 Max= 7.43D-03
 Root I= 11 Norm= 5.21D-01 Max= 2.67D-01
 Root I= 12 Norm= 5.26D-01 Max= 2.74D-01
 Root I= 13 Norm= 5.68D-01 Max= 3.41D-01
 Root I= 14 Norm= 5.68D-01 Max= 3.38D-01
 New vectors created:  14

 Right Eigenvector.

 Vector Nr.  21
 **********************
 DD1Dir will call FoFMem   1 times, MxPair=        20
 NAB=    10 NAA=     0 NBB=     0.
 Vector Nr.  22
 **********************
 DD1Dir will call FoFMem   1 times, MxPair=        20
 NAB=    10 NAA=     0 NBB=     0.
 Vector Nr.  23
 **********************
 DD1Dir will call FoFMem   1 times, MxPair=        20
 NAB=    10 NAA=     0 NBB=     0.
 Vector Nr.  24
 **********************
 DD1Dir will call FoFMem   1 times, MxPair=        20
 NAB=    10 NAA=     0 NBB=     0.
 Vector Nr.  25
 **********************
 DD1Dir will call FoFMem   1 times, MxPair=        20
 NAB=    10 NAA=     0 NBB=     0.
 Vector Nr.  26
 **********************
 DD1Dir will call FoFMem   1 times, MxPair=        20
 NAB=    10 NAA=     0 NBB=     0.
 Vector Nr.  27
 **********************
 DD1Dir will call FoFMem   1 times, MxPair=        20
 NAB=    10 NAA=     0 NBB=     0.
 Vector Nr.  28
 **********************
 DD1Dir will call FoFMem   1 times, MxPair=        20
 NAB=    10 NAA=     0 NBB=     0.
 Vector Nr.  29
 **********************
 DD1Dir will call FoFMem   1 times, MxPair=        20
 NAB=    10 NAA=     0 NBB=     0.
 Vector Nr.  30
 **********************
 DD1Dir will call FoFMem   1 times, MxPair=        20
 NAB=    10 NAA=     0 NBB=     0.
 Vector Nr.  31
 **********************
 DD1Dir will call FoFMem   1 times, MxPair=        20
 NAB=    10 NAA=     0 NBB=     0.
 Vector Nr.  32
 **********************
 DD1Dir will call FoFMem   1 times, MxPair=        20
 NAB=    10 NAA=     0 NBB=     0.
 Vector Nr.  33
 **********************
 DD1Dir will call FoFMem   1 times, MxPair=        20
 NAB=    10 NAA=     0 NBB=     0.
 Vector Nr.  34
 **********************
 DD1Dir will call FoFMem   1 times, MxPair=        20
 NAB=    10 NAA=     0 NBB=     0.
 Actual subspace dimension: NDim=  34, NOld=  20, NNew=  14
 Right eigenvalues (eV) at iteration    3
 Root  1 =   12.166389234207
 Root  2 =   12.166397845783
 Root  3 =   12.204670655103
 Root  4 =   13.834709592516
 Root  5 =   13.834792371163
 Root  6 =   13.834799623716
 Root  7 =   14.135821460914
 Root  8 =   14.135827334507
 Root  9 =   14.286804689902
 Root 10 =   14.286806647333
 Norms of the Right Residuals
 Root I=  1 Norm= 2.15D-02 Max= 2.32D-03
 Root I=  2 Norm= 2.15D-02 Max= 2.65D-03
 Root I=  3 Norm= 3.15D-02 Max= 3.45D-03
 Root I=  4 Norm= 2.29D-02 Max= 1.88D-03
 Root I=  5 Norm= 2.41D-02 Max= 1.78D-03
 Root I=  6 Norm= 2.41D-02 Max= 1.95D-03
 Root I=  7 Norm= 2.13D-02 Max= 1.75D-03
 Root I=  8 Norm= 2.13D-02 Max= 1.91D-03
 Root I=  9 Norm= 2.09D-02 Max= 1.68D-03
 Root I= 10 Norm= 2.09D-02 Max= 1.72D-03
 New vectors created:  10

 Right Eigenvector.

 Vector Nr.  35
 **********************
 DD1Dir will call FoFMem   1 times, MxPair=        20
 NAB=    10 NAA=     0 NBB=     0.
 Vector Nr.  36
 **********************
 DD1Dir will call FoFMem   1 times, MxPair=        20
 NAB=    10 NAA=     0 NBB=     0.
 Vector Nr.  37
 **********************
 DD1Dir will call FoFMem   1 times, MxPair=        20
 NAB=    10 NAA=     0 NBB=     0.
 Vector Nr.  38
 **********************
 DD1Dir will call FoFMem   1 times, MxPair=        20
 NAB=    10 NAA=     0 NBB=     0.
 Vector Nr.  39
 **********************
 DD1Dir will call FoFMem   1 times, MxPair=        20
 NAB=    10 NAA=     0 NBB=     0.
 Vector Nr.  40
 **********************
 DD1Dir will call FoFMem   1 times, MxPair=        20
 NAB=    10 NAA=     0 NBB=     0.
 Vector Nr.  41
 **********************
 DD1Dir will call FoFMem   1 times, MxPair=        20
 NAB=    10 NAA=     0 NBB=     0.
 Vector Nr.  42
 **********************
 DD1Dir will call FoFMem   1 times, MxPair=        20
 NAB=    10 NAA=     0 NBB=     0.
 Vector Nr.  43
 **********************
 DD1Dir will call FoFMem   1 times, MxPair=        20
 NAB=    10 NAA=     0 NBB=     0.
 Vector Nr.  44
 **********************
 DD1Dir will call FoFMem   1 times, MxPair=        20
 NAB=    10 NAA=     0 NBB=     0.
 Actual subspace dimension: NDim=  44, NOld=  34, NNew=  10
 Right eigenvalues (eV) at iteration    4
 Root  1 =   12.169608573107
 Root  2 =   12.169616619446
 Root  3 =   12.191829785802
 Root  4 =   13.839373487020
 Root  5 =   13.839378985305
 Root  6 =   13.839617127360
 Root  7 =   14.139309799204
 Root  8 =   14.139315739302
 Root  9 =   14.291193016301
 Root 10 =   14.291195516193
 Norms of the Right Residuals
 Root I=  1 Norm= 6.40D-03 Max= 1.00D-03
 Root I=  2 Norm= 6.40D-03 Max= 7.95D-04
 Root I=  3 Norm= 1.82D-02 Max= 2.83D-03
 Root I=  4 Norm= 6.63D-03 Max= 4.83D-04
 Root I=  5 Norm= 6.63D-03 Max= 5.08D-04
 Root I=  6 Norm= 6.08D-03 Max= 5.98D-04
 Root I=  7 Norm= 6.53D-03 Max= 6.49D-04
 Root I=  8 Norm= 6.53D-03 Max= 7.29D-04
 Root I=  9 Norm= 5.64D-03 Max= 5.57D-04
 Root I= 10 Norm= 5.64D-03 Max= 7.83D-04
 New vectors created:  10

 Right Eigenvector.

 Vector Nr.  45
 **********************
 DD1Dir will call FoFMem   1 times, MxPair=        20
 NAB=    10 NAA=     0 NBB=     0.
 Vector Nr.  46
 **********************
 DD1Dir will call FoFMem   1 times, MxPair=        20
 NAB=    10 NAA=     0 NBB=     0.
 Vector Nr.  47
 **********************
 DD1Dir will call FoFMem   1 times, MxPair=        20
 NAB=    10 NAA=     0 NBB=     0.
 Vector Nr.  48
 **********************
 DD1Dir will call FoFMem   1 times, MxPair=        20
 NAB=    10 NAA=     0 NBB=     0.
 Vector Nr.  49
 **********************
 DD1Dir will call FoFMem   1 times, MxPair=        20
 NAB=    10 NAA=     0 NBB=     0.
 Vector Nr.  50
 **********************
 DD1Dir will call FoFMem   1 times, MxPair=        20
 NAB=    10 NAA=     0 NBB=     0.
 Vector Nr.  51
 **********************
 DD1Dir will call FoFMem   1 times, MxPair=        20
 NAB=    10 NAA=     0 NBB=     0.
 Vector Nr.  52
 **********************
 DD1Dir will call FoFMem   1 times, MxPair=        20
 NAB=    10 NAA=     0 NBB=     0.
 Vector Nr.  53
 **********************
 DD1Dir will call FoFMem   1 times, MxPair=        20
 NAB=    10 NAA=     0 NBB=     0.
 Vector Nr.  54
 **********************
 DD1Dir will call FoFMem   1 times, MxPair=        20
 NAB=    10 NAA=     0 NBB=     0.
 Actual subspace dimension: NDim=  54, NOld=  44, NNew=  10
 Right eigenvalues (eV) at iteration    5
 Root  1 =   12.168313174458
 Root  2 =   12.168321752386
 Root  3 =   12.173701785964
 Root  4 =   13.839333222398
 Root  5 =   13.839506170676
 Root  6 =   13.839512278200
 Root  7 =   14.138673519671
 Root  8 =   14.138679479498
 Root  9 =   14.290180965229
 Root 10 =   14.290183635241
 Norms of the Right Residuals
 Root I=  1 Norm= 1.83D-03 Max= 2.39D-04
 Root I=  2 Norm= 1.83D-03 Max= 2.23D-04
 Root I=  3 Norm= 1.06D-02 Max= 1.21D-03
 Root I=  4 Norm= 1.43D-03 Max= 1.03D-04
 Root I=  5 Norm= 1.35D-03 Max= 8.27D-05
 Root I=  6 Norm= 1.35D-03 Max= 9.12D-05
 Root I=  7 Norm= 1.81D-03 Max= 1.36D-04
 Root I=  8 Norm= 1.81D-03 Max= 1.21D-04
 Root I=  9 Norm= 1.57D-03 Max= 1.31D-04
 Root I= 10 Norm= 1.57D-03 Max= 1.31D-04
 New vectors created:  10

 Right Eigenvector.

 Vector Nr.  55
 **********************
 DD1Dir will call FoFMem   1 times, MxPair=        20
 NAB=    10 NAA=     0 NBB=     0.
 Vector Nr.  56
 **********************
 DD1Dir will call FoFMem   1 times, MxPair=        20
 NAB=    10 NAA=     0 NBB=     0.
 Vector Nr.  57
 **********************
 DD1Dir will call FoFMem   1 times, MxPair=        20
 NAB=    10 NAA=     0 NBB=     0.
 Vector Nr.  58
 **********************
 DD1Dir will call FoFMem   1 times, MxPair=        20
 NAB=    10 NAA=     0 NBB=     0.
 Vector Nr.  59
 **********************
 DD1Dir will call FoFMem   1 times, MxPair=        20
 NAB=    10 NAA=     0 NBB=     0.
 Vector Nr.  60
 **********************
 DD1Dir will call FoFMem   1 times, MxPair=        20
 NAB=    10 NAA=     0 NBB=     0.
 Vector Nr.  61
 **********************
 DD1Dir will call FoFMem   1 times, MxPair=        20
 NAB=    10 NAA=     0 NBB=     0.
 Vector Nr.  62
 **********************
 DD1Dir will call FoFMem   1 times, MxPair=        20
 NAB=    10 NAA=     0 NBB=     0.
 Vector Nr.  63
 **********************
 DD1Dir will call FoFMem   1 times, MxPair=        20
 NAB=    10 NAA=     0 NBB=     0.
 Vector Nr.  64
 **********************
 DD1Dir will call FoFMem   1 times, MxPair=        20
 NAB=    10 NAA=     0 NBB=     0.
 Actual subspace dimension: NDim=  64, NOld=  54, NNew=  10
 Right eigenvalues (eV) at iteration    6
 Root  1 =   12.168166551832
 Root  2 =   12.168175199930
 Root  3 =   12.168379500032
 Root  4 =   13.839505699913
 Root  5 =   13.839549390861
 Root  6 =   13.839555495172
 Root  7 =   14.138718414474
 Root  8 =   14.138724370447
 Root  9 =   14.289928336839
 Root 10 =   14.289931035842
 Norms of the Right Residuals
 Root I=  1 Norm= 5.52D-04 Max= 5.36D-05
 Root I=  2 Norm= 5.56D-04 Max= 4.44D-05
 Root I=  3 Norm= 4.05D-03 Max= 6.46D-04
 Root I=  4 Norm= 3.47D-04 Max= 2.53D-05
 Root I=  5 Norm= 3.29D-04 Max= 2.36D-05
 Root I=  6 Norm= 3.29D-04 Max= 3.44D-05
 Root I=  7 Norm= 5.11D-04 Max= 5.44D-05
 Root I=  8 Norm= 5.11D-04 Max= 4.95D-05
 Root I=  9 Norm= 4.80D-04 Max= 5.70D-05
 Root I= 10 Norm= 4.80D-04 Max= 4.36D-05
 New vectors created:  10

 Right Eigenvector.

 Vector Nr.  65
 **********************
 DD1Dir will call FoFMem   1 times, MxPair=        20
 NAB=    10 NAA=     0 NBB=     0.
 Vector Nr.  66
 **********************
 DD1Dir will call FoFMem   1 times, MxPair=        20
 NAB=    10 NAA=     0 NBB=     0.
 Vector Nr.  67
 **********************
 DD1Dir will call FoFMem   1 times, MxPair=        20
 NAB=    10 NAA=     0 NBB=     0.
 Vector Nr.  68
 **********************
 DD1Dir will call FoFMem   1 times, MxPair=        20
 NAB=    10 NAA=     0 NBB=     0.
 Vector Nr.  69
 **********************
 DD1Dir will call FoFMem   1 times, MxPair=        20
 NAB=    10 NAA=     0 NBB=     0.
 Vector Nr.  70
 **********************
 DD1Dir will call FoFMem   1 times, MxPair=        20
 NAB=    10 NAA=     0 NBB=     0.
 Vector Nr.  71
 **********************
 DD1Dir will call FoFMem   1 times, MxPair=        20
 NAB=    10 NAA=     0 NBB=     0.
 Vector Nr.  72
 **********************
 DD1Dir will call FoFMem   1 times, MxPair=        20
 NAB=    10 NAA=     0 NBB=     0.
 Vector Nr.  73
 **********************
 DD1Dir will call FoFMem   1 times, MxPair=        20
 NAB=    10 NAA=     0 NBB=     0.
 Vector Nr.  74
 **********************
 DD1Dir will call FoFMem   1 times, MxPair=        20
 NAB=    10 NAA=     0 NBB=     0.
 Actual subspace dimension: NDim=  74, NOld=  64, NNew=  10
 Right eigenvalues (eV) at iteration    7
 Root  1 =   12.168243664109
 Root  2 =   12.168252304821
 Root  3 =   12.168401570350
 Root  4 =   13.839605644735
 Root  5 =   13.839608529856
 Root  6 =   13.839613666671
 Root  7 =   14.138805723652
 Root  8 =   14.138811682041
 Root  9 =   14.289937916368
 Root 10 =   14.289940604133
 Norms of the Right Residuals
 Root I=  1 Norm= 1.47D-04 Max= 1.68D-05
 Root I=  2 Norm= 1.50D-04 Max= 1.25D-05
 Root I=  3 Norm= 1.36D-03 Max= 1.22D-04
 Root I=  4 Norm= 7.90D-05 Max= 4.89D-06
 Root I=  5 Norm= 7.85D-05 Max= 6.05D-06
 Root I=  6 Norm= 7.71D-05 Max= 6.91D-06
 Root I=  7 Norm= 1.72D-04 Max= 1.16D-05
 Root I=  8 Norm= 1.72D-04 Max= 1.28D-05
 Root I=  9 Norm= 1.58D-04 Max= 1.60D-05
 Root I= 10 Norm= 1.58D-04 Max= 1.50D-05
 New vectors created:  10

 Right Eigenvector.

 Vector Nr.  75
 **********************
 DD1Dir will call FoFMem   1 times, MxPair=        20
 NAB=    10 NAA=     0 NBB=     0.
 Vector Nr.  76
 **********************
 DD1Dir will call FoFMem   1 times, MxPair=        20
 NAB=    10 NAA=     0 NBB=     0.
 Vector Nr.  77
 **********************
 DD1Dir will call FoFMem   1 times, MxPair=        20
 NAB=    10 NAA=     0 NBB=     0.
 Vector Nr.  78
 **********************
 DD1Dir will call FoFMem   1 times, MxPair=        20
 NAB=    10 NAA=     0 NBB=     0.
 Vector Nr.  79
 **********************
 DD1Dir will call FoFMem   1 times, MxPair=        20
 NAB=    10 NAA=     0 NBB=     0.
 Vector Nr.  80
 **********************
 DD1Dir will call FoFMem   1 times, MxPair=        20
 NAB=    10 NAA=     0 NBB=     0.
 Vector Nr.  81
 **********************
 DD1Dir will call FoFMem   1 times, MxPair=        20
 NAB=    10 NAA=     0 NBB=     0.
 Vector Nr.  82
 **********************
 DD1Dir will call FoFMem   1 times, MxPair=        20
 NAB=    10 NAA=     0 NBB=     0.
 Vector Nr.  83
 **********************
 DD1Dir will call FoFMem   1 times, MxPair=        20
 NAB=    10 NAA=     0 NBB=     0.
 Vector Nr.  84
 **********************
 DD1Dir will call FoFMem   1 times, MxPair=        20
 NAB=    10 NAA=     0 NBB=     0.
 Actual subspace dimension: NDim=  84, NOld=  74, NNew=  10
 Right eigenvalues (eV) at iteration    8
 Root  1 =   12.168258746360
 Root  2 =   12.168267217067
 Root  3 =   12.168315528922
 Root  4 =   13.839610993247
 Root  5 =   13.839614742083
 Root  6 =   13.839618238026
 Root  7 =   14.138783776348
 Root  8 =   14.138789733964
 Root  9 =   14.289909318723
 Root 10 =   14.289912014608
 Norms of the Right Residuals
 Root I=  1 Norm= 3.66D-05 Max= 3.71D-06
 Root I=  2 Norm= 4.59D-05 Max= 3.97D-06
 Root I=  3 Norm= 3.80D-04 Max= 4.71D-05
 Root I=  4 Norm= 1.93D-05 Max= 1.66D-06
 Root I=  5 Norm= 1.96D-05 Max= 1.12D-06
 Root I=  6 Norm= 1.93D-05 Max= 1.29D-06
 Root I=  7 Norm= 4.53D-05 Max= 3.44D-06
 Root I=  8 Norm= 4.53D-05 Max= 3.52D-06
 Root I=  9 Norm= 4.93D-05 Max= 5.34D-06
 Root I= 10 Norm= 4.93D-05 Max= 6.98D-06
 New vectors created:  10

 Right Eigenvector.

 Vector Nr.  85
 **********************
 DD1Dir will call FoFMem   1 times, MxPair=        20
 NAB=    10 NAA=     0 NBB=     0.
 Vector Nr.  86
 **********************
 DD1Dir will call FoFMem   1 times, MxPair=        20
 NAB=    10 NAA=     0 NBB=     0.
 Vector Nr.  87
 **********************
 DD1Dir will call FoFMem   1 times, MxPair=        20
 NAB=    10 NAA=     0 NBB=     0.
 Vector Nr.  88
 **********************
 DD1Dir will call FoFMem   1 times, MxPair=        20
 NAB=    10 NAA=     0 NBB=     0.
 Vector Nr.  89
 **********************
 DD1Dir will call FoFMem   1 times, MxPair=        20
 NAB=    10 NAA=     0 NBB=     0.
 Vector Nr.  90
 **********************
 DD1Dir will call FoFMem   1 times, MxPair=        20
 NAB=    10 NAA=     0 NBB=     0.
 Vector Nr.  91
 **********************
 DD1Dir will call FoFMem   1 times, MxPair=        20
 NAB=    10 NAA=     0 NBB=     0.
 Vector Nr.  92
 **********************
 DD1Dir will call FoFMem   1 times, MxPair=        20
 NAB=    10 NAA=     0 NBB=     0.
 Vector Nr.  93
 **********************
 DD1Dir will call FoFMem   1 times, MxPair=        20
 NAB=    10 NAA=     0 NBB=     0.
 Vector Nr.  94
 **********************
 DD1Dir will call FoFMem   1 times, MxPair=        20
 NAB=    10 NAA=     0 NBB=     0.
 Actual subspace dimension: NDim=  94, NOld=  84, NNew=  10
 Right eigenvalues (eV) at iteration    9
 Root  1 =   12.168241024798
 Root  2 =   12.168252496805
 Root  3 =   12.168261824783
 Root  4 =   13.839610799280
 Root  5 =   13.839614737309
 Root  6 =   13.839618039846
 Root  7 =   14.138773758341
 Root  8 =   14.138779715921
 Root  9 =   14.289900555051
 Root 10 =   14.289903249928
 Norms of the Right Residuals
 Root I=  1 Norm= 1.03D-04 Max= 1.07D-05
 Root I=  2 Norm= 8.45D-06 Max= 8.52D-07
 Root I=  3 Norm= 1.96D-05 Max= 1.94D-06
 Root I=  4 Norm= 5.16D-06 Max= 3.80D-07
 Root I=  5 Norm= 5.05D-06 Max= 3.65D-07
 Root I=  6 Norm= 5.15D-06 Max= 3.62D-07
 Root I=  7 Norm= 1.12D-05 Max= 9.96D-07
 Root I=  8 Norm= 1.12D-05 Max= 9.03D-07
 Root I=  9 Norm= 1.39D-05 Max= 9.62D-07
 Root I= 10 Norm= 1.39D-05 Max= 1.26D-06
 New vectors created:  10

 Right Eigenvector.

 Vector Nr.  95
 **********************
 DD1Dir will call FoFMem   1 times, MxPair=        20
 NAB=    10 NAA=     0 NBB=     0.
 Vector Nr.  96
 **********************
 DD1Dir will call FoFMem   1 times, MxPair=        20
 NAB=    10 NAA=     0 NBB=     0.
 Vector Nr.  97
 **********************
 DD1Dir will call FoFMem   1 times, MxPair=        20
 NAB=    10 NAA=     0 NBB=     0.
 Vector Nr.  98
 **********************
 DD1Dir will call FoFMem   1 times, MxPair=        20
 NAB=    10 NAA=     0 NBB=     0.
 Vector Nr.  99
 **********************
 DD1Dir will call FoFMem   1 times, MxPair=        20
 NAB=    10 NAA=     0 NBB=     0.
 Vector Nr. 100
 **********************
 DD1Dir will call FoFMem   1 times, MxPair=        20
 NAB=    10 NAA=     0 NBB=     0.
 Vector Nr. 101
 **********************
 DD1Dir will call FoFMem   1 times, MxPair=        20
 NAB=    10 NAA=     0 NBB=     0.
 Vector Nr. 102
 **********************
 DD1Dir will call FoFMem   1 times, MxPair=        20
 NAB=    10 NAA=     0 NBB=     0.
 Vector Nr. 103
 **********************
 DD1Dir will call FoFMem   1 times, MxPair=        20
 NAB=    10 NAA=     0 NBB=     0.
 Vector Nr. 104
 **********************
 DD1Dir will call FoFMem   1 times, MxPair=        20
 NAB=    10 NAA=     0 NBB=     0.
 Actual subspace dimension: NDim= 104, NOld=  94, NNew=  10
 Right eigenvalues (eV) at iteration   10
 Root  1 =   12.168249620522
 Root  2 =   12.168251430843
 Root  3 =   12.168261282914
 Root  4 =   13.839610398779
 Root  5 =   13.839614445367
 Root  6 =   13.839617644711
 Root  7 =   14.138772409447
 Root  8 =   14.138778366993
 Root  9 =   14.289899516402
 Root 10 =   14.289902211324
 Norms of the Right Residuals
 Root I=  1 Norm= 2.48D-05 Max= 2.54D-06
 Root I=  2 Norm= 5.56D-06 Max= 5.26D-07
 Root I=  3 Norm= 8.89D-06 Max= 9.28D-07
 Root I=  4 Norm= 1.31D-06 Max= 1.17D-07
 Root I=  5 Norm= 1.51D-06 Max= 1.36D-07
 Root I=  6 Norm= 1.32D-06 Max= 1.33D-07
 Root I=  7 Norm= 3.24D-06 Max= 3.05D-07
 Root I=  8 Norm= 3.24D-06 Max= 2.80D-07
 Root I=  9 Norm= 3.69D-06 Max= 2.82D-07
 Root I= 10 Norm= 3.69D-06 Max= 3.73D-07
 New vectors created:  10

 Right Eigenvector.

 Vector Nr. 105
 **********************
 DD1Dir will call FoFMem   1 times, MxPair=        20
 NAB=    10 NAA=     0 NBB=     0.
 Vector Nr. 106
 **********************
 DD1Dir will call FoFMem   1 times, MxPair=        20
 NAB=    10 NAA=     0 NBB=     0.
 Vector Nr. 107
 **********************
 DD1Dir will call FoFMem   1 times, MxPair=        20
 NAB=    10 NAA=     0 NBB=     0.
 Vector Nr. 108
 **********************
 DD1Dir will call FoFMem   1 times, MxPair=        20
 NAB=    10 NAA=     0 NBB=     0.
 Vector Nr. 109
 **********************
 DD1Dir will call FoFMem   1 times, MxPair=        20
 NAB=    10 NAA=     0 NBB=     0.
 Vector Nr. 110
 **********************
 DD1Dir will call FoFMem   1 times, MxPair=        20
 NAB=    10 NAA=     0 NBB=     0.
 Vector Nr. 111
 **********************
 DD1Dir will call FoFMem   1 times, MxPair=        20
 NAB=    10 NAA=     0 NBB=     0.
 Vector Nr. 112
 **********************
 DD1Dir will call FoFMem   1 times, MxPair=        20
 NAB=    10 NAA=     0 NBB=     0.
 Vector Nr. 113
 **********************
 DD1Dir will call FoFMem   1 times, MxPair=        20
 NAB=    10 NAA=     0 NBB=     0.
 Vector Nr. 114
 **********************
 DD1Dir will call FoFMem   1 times, MxPair=        20
 NAB=    10 NAA=     0 NBB=     0.
 Actual subspace dimension: NDim= 114, NOld= 104, NNew=  10
 Right eigenvalues (eV) at iteration   11
 Root  1 =   12.168251848634
 Root  2 =   12.168256290691
 Root  3 =   12.168263493407
 Root  4 =   13.839610610701
 Root  5 =   13.839614841626
 Root  6 =   13.839617874188
 Root  7 =   14.138773055466
 Root  8 =   14.138779013257
 Root  9 =   14.289900505930
 Root 10 =   14.289903203314
 Norms of the Right Residuals
 Root I=  1 Norm= 7.45D-07 Max= 4.90D-08
 Root I=  2 Norm= 5.67D-06 Max= 3.94D-07
 Root I=  3 Norm= 4.68D-06 Max= 3.17D-07
 Root I=  4 Norm= 4.29D-07 Max= 3.47D-08
 Root I=  5 Norm= 5.27D-07 Max= 4.14D-08
 Root I=  6 Norm= 4.43D-07 Max= 4.26D-08
 Root I=  7 Norm= 1.00D-06 Max= 1.29D-07
 Root I=  8 Norm= 1.00D-06 Max= 1.21D-07
 Root I=  9 Norm= 1.01D-06 Max= 7.12D-08
 Root I= 10 Norm= 1.01D-06 Max= 8.92D-08
 New vectors created:  10

 Right Eigenvector.

 Vector Nr. 115
 **********************
 DD1Dir will call FoFMem   1 times, MxPair=        20
 NAB=    10 NAA=     0 NBB=     0.
 Vector Nr. 116
 **********************
 DD1Dir will call FoFMem   1 times, MxPair=        20
 NAB=    10 NAA=     0 NBB=     0.
 Vector Nr. 117
 **********************
 DD1Dir will call FoFMem   1 times, MxPair=        20
 NAB=    10 NAA=     0 NBB=     0.
 Vector Nr. 118
 **********************
 DD1Dir will call FoFMem   1 times, MxPair=        20
 NAB=    10 NAA=     0 NBB=     0.
 Vector Nr. 119
 **********************
 DD1Dir will call FoFMem   1 times, MxPair=        20
 NAB=    10 NAA=     0 NBB=     0.
 Vector Nr. 120
 **********************
 DD1Dir will call FoFMem   1 times, MxPair=        20
 NAB=    10 NAA=     0 NBB=     0.
 Vector Nr. 121
 **********************
 DD1Dir will call FoFMem   1 times, MxPair=        20
 NAB=    10 NAA=     0 NBB=     0.
 Vector Nr. 122
 **********************
 DD1Dir will call FoFMem   1 times, MxPair=        20
 NAB=    10 NAA=     0 NBB=     0.
 Vector Nr. 123
 **********************
 DD1Dir will call FoFMem   1 times, MxPair=        20
 NAB=    10 NAA=     0 NBB=     0.
 Vector Nr. 124
 **********************
 DD1Dir will call FoFMem   1 times, MxPair=        20
 NAB=    10 NAA=     0 NBB=     0.
 Actual subspace dimension: NDim= 124, NOld= 114, NNew=  10
 Right eigenvalues (eV) at iteration   12
 Root  1 =   12.168251894246
 Root  2 =   12.168256458542
 Root  3 =   12.168263625097
 Root  4 =   13.839610605959
 Root  5 =   13.839614847588
 Root  6 =   13.839617871105
 Root  7 =   14.138773046736
 Root  8 =   14.138779004342
 Root  9 =   14.289900660824
 Root 10 =   14.289903362138
 Norms of the Right Residuals
 Root I=  1 Norm= 1.85D-07 Max= 1.48D-08
 Root I=  2 Norm= 1.70D-06 Max= 1.26D-07
 Root I=  3 Norm= 1.44D-06 Max= 1.08D-07
 Root I=  4 Norm= 1.26D-07 Max= 1.14D-08
 Root I=  5 Norm= 1.60D-07 Max= 1.01D-08
 Root I=  6 Norm= 1.35D-07 Max= 8.89D-09
 Root I=  7 Norm= 2.97D-07 Max= 2.32D-08
 Root I=  8 Norm= 3.01D-07 Max= 2.42D-08
 Root I=  9 Norm= 2.48D-07 Max= 2.18D-08
 Root I= 10 Norm= 2.62D-07 Max= 2.23D-08
 New vectors created:  10

 Right Eigenvector.

 Vector Nr. 125
 **********************
 DD1Dir will call FoFMem   1 times, MxPair=        20
 NAB=    10 NAA=     0 NBB=     0.
 Vector Nr. 126
 **********************
 DD1Dir will call FoFMem   1 times, MxPair=        20
 NAB=    10 NAA=     0 NBB=     0.
 Vector Nr. 127
 **********************
 DD1Dir will call FoFMem   1 times, MxPair=        20
 NAB=    10 NAA=     0 NBB=     0.
 Vector Nr. 128
 **********************
 DD1Dir will call FoFMem   1 times, MxPair=        20
 NAB=    10 NAA=     0 NBB=     0.
 Vector Nr. 129
 **********************
 DD1Dir will call FoFMem   1 times, MxPair=        20
 NAB=    10 NAA=     0 NBB=     0.
 Vector Nr. 130
 **********************
 DD1Dir will call FoFMem   1 times, MxPair=        20
 NAB=    10 NAA=     0 NBB=     0.
 Vector Nr. 131
 **********************
 DD1Dir will call FoFMem   1 times, MxPair=        20
 NAB=    10 NAA=     0 NBB=     0.
 Vector Nr. 132
 **********************
 DD1Dir will call FoFMem   1 times, MxPair=        20
 NAB=    10 NAA=     0 NBB=     0.
 Vector Nr. 133
 **********************
 DD1Dir will call FoFMem   1 times, MxPair=        20
 NAB=    10 NAA=     0 NBB=     0.
 Vector Nr. 134
 **********************
 DD1Dir will call FoFMem   1 times, MxPair=        20
 NAB=    10 NAA=     0 NBB=     0.
 Actual subspace dimension: NDim= 134, NOld= 124, NNew=  10
 Right eigenvalues (eV) at iteration   13
 Root  1 =   12.168251879720
 Root  2 =   12.168256312784
 Root  3 =   12.168263522115
 Root  4 =   13.839610581474
 Root  5 =   13.839614819620
 Root  6 =   13.839617844439
 Root  7 =   14.138773049104
 Root  8 =   14.138779006539
 Root  9 =   14.289900632011
 Root 10 =   14.289903331012
 Norms of the Right Residuals
 Root I=  1 Norm= 5.26D-08 Max= 4.31D-09
 Root I=  2 Norm= 5.01D-07 Max= 5.01D-08
 Root I=  3 Norm= 4.11D-07 Max= 4.12D-08
 Root I=  4 Norm= 5.18D-08 Max= 2.77D-09
 Root I=  5 Norm= 8.53D-08 Max= 6.46D-09
 Root I=  6 Norm= 6.34D-08 Max= 3.47D-09
 Root I=  7 Norm= 9.31D-08 Max= 8.25D-09
 Root I=  8 Norm= 1.06D-07 Max= 8.70D-09
 Root I=  9 Norm= 8.71D-08 Max= 8.80D-09
 Root I= 10 Norm= 1.30D-07 Max= 1.28D-08
 New vectors created:  10

 Right Eigenvector.

 Vector Nr. 135
 **********************
 DD1Dir will call FoFMem   1 times, MxPair=        20
 NAB=    10 NAA=     0 NBB=     0.
 Vector Nr. 136
 **********************
 DD1Dir will call FoFMem   1 times, MxPair=        20
 NAB=    10 NAA=     0 NBB=     0.
 Vector Nr. 137
 **********************
 DD1Dir will call FoFMem   1 times, MxPair=        20
 NAB=    10 NAA=     0 NBB=     0.
 Vector Nr. 138
 **********************
 DD1Dir will call FoFMem   1 times, MxPair=        20
 NAB=    10 NAA=     0 NBB=     0.
 Vector Nr. 139
 **********************
 DD1Dir will call FoFMem   1 times, MxPair=        20
 NAB=    10 NAA=     0 NBB=     0.
 Vector Nr. 140
 **********************
 DD1Dir will call FoFMem   1 times, MxPair=        20
 NAB=    10 NAA=     0 NBB=     0.
 Vector Nr. 141
 **********************
 DD1Dir will call FoFMem   1 times, MxPair=        20
 NAB=    10 NAA=     0 NBB=     0.
 Vector Nr. 142
 **********************
 DD1Dir will call FoFMem   1 times, MxPair=        20
 NAB=    10 NAA=     0 NBB=     0.
 Vector Nr. 143
 **********************
 DD1Dir will call FoFMem   1 times, MxPair=        20
 NAB=    10 NAA=     0 NBB=     0.
 Vector Nr. 144
 **********************
 DD1Dir will call FoFMem   1 times, MxPair=        20
 NAB=    10 NAA=     0 NBB=     0.
 Actual subspace dimension: NDim= 144, NOld= 134, NNew=  10
 Right eigenvalues (eV) at iteration   14
 Root  1 =   12.168251881564
 Root  2 =   12.168256406088
 Root  3 =   12.168263584033
 Root  4 =   13.839610577562
 Root  5 =   13.839614820115
 Root  6 =   13.839617840799
 Root  7 =   14.138773065762
 Root  8 =   14.138779024264
 Root  9 =   14.289900623280
 Root 10 =   14.289903318826
 Norms of the Right Residuals
 Root I=  1 Norm= 2.30D-08 Max= 1.01D-09
 Root I=  2 Norm= 1.32D-07 Max= 8.54D-09
 Root I=  3 Norm= 1.11D-07 Max= 7.18D-09
 Root I=  4 Norm= 3.16D-08 Max= 1.44D-09
 Root I=  5 Norm= 5.40D-08 Max= 3.60D-09
 Root I=  6 Norm= 3.68D-08 Max= 2.14D-09
 Root I=  7 Norm= 3.35D-08 Max= 2.12D-09
 Root I=  8 Norm= 4.89D-08 Max= 2.70D-09
 Root I=  9 Norm= 9.18D-08 Max= 7.44D-09
 Root I= 10 Norm= 1.12D-07 Max= 7.21D-09
 New vectors created:  10

 Right Eigenvector.

 Vector Nr. 145
 **********************
 DD1Dir will call FoFMem   1 times, MxPair=        20
 NAB=    10 NAA=     0 NBB=     0.
 Vector Nr. 146
 **********************
 DD1Dir will call FoFMem   1 times, MxPair=        20
 NAB=    10 NAA=     0 NBB=     0.
 Vector Nr. 147
 **********************
 DD1Dir will call FoFMem   1 times, MxPair=        20
 NAB=    10 NAA=     0 NBB=     0.
 Vector Nr. 148
 **********************
 DD1Dir will call FoFMem   1 times, MxPair=        20
 NAB=    10 NAA=     0 NBB=     0.
 Vector Nr. 149
 **********************
 DD1Dir will call FoFMem   1 times, MxPair=        20
 NAB=    10 NAA=     0 NBB=     0.
 Vector Nr. 150
 **********************
 DD1Dir will call FoFMem   1 times, MxPair=        20
 NAB=    10 NAA=     0 NBB=     0.
 Vector Nr. 151
 **********************
 DD1Dir will call FoFMem   1 times, MxPair=        20
 NAB=    10 NAA=     0 NBB=     0.
 Vector Nr. 152
 **********************
 DD1Dir will call FoFMem   1 times, MxPair=        20
 NAB=    10 NAA=     0 NBB=     0.
 Vector Nr. 153
 **********************
 DD1Dir will call FoFMem   1 times, MxPair=        20
 NAB=    10 NAA=     0 NBB=     0.
 Vector Nr. 154
 **********************
 DD1Dir will call FoFMem   1 times, MxPair=        20
 NAB=    10 NAA=     0 NBB=     0.
 Actual subspace dimension: NDim= 154, NOld= 144, NNew=  10
 Right eigenvalues (eV) at iteration   15
 Root  1 =   12.168251883161
 Root  2 =   12.168256421259
 Root  3 =   12.168263595257
 Root  4 =   13.839610577600
 Root  5 =   13.839614823016
 Root  6 =   13.839617843411
 Root  7 =   14.138773068562
 Root  8 =   14.138779026760
 Root  9 =   14.289900629041
 Root 10 =   14.289903323590
 Norms of the Right Residuals
 Root I=  1 Norm= 1.86D-08 Max= 6.08D-10
 Root I=  2 Norm= 3.71D-08 Max= 2.25D-09
 Root I=  3 Norm= 3.22D-08 Max= 1.87D-09
 Root I=  4 Norm= 2.15D-08 Max= 6.99D-10
 Root I=  5 Norm= 2.70D-08 Max= 1.33D-09
 Root I=  6 Norm= 2.17D-08 Max= 9.58D-10
 Root I=  7 Norm= 2.24D-08 Max= 6.69D-10
 Root I=  8 Norm= 2.54D-08 Max= 9.80D-10
 Root I=  9 Norm= 2.24D-07 Max= 1.13D-08
 Root I= 10 Norm= 1.71D-07 Max= 9.53D-09
 New vectors created:  10

 Right Eigenvector.

 Vector Nr. 155
 **********************
 DD1Dir will call FoFMem   1 times, MxPair=        20
 NAB=    10 NAA=     0 NBB=     0.
 Vector Nr. 156
 **********************
 DD1Dir will call FoFMem   1 times, MxPair=        20
 NAB=    10 NAA=     0 NBB=     0.
 Vector Nr. 157
 **********************
 DD1Dir will call FoFMem   1 times, MxPair=        20
 NAB=    10 NAA=     0 NBB=     0.
 Vector Nr. 158
 **********************
 DD1Dir will call FoFMem   1 times, MxPair=        20
 NAB=    10 NAA=     0 NBB=     0.
 Vector Nr. 159
 **********************
 DD1Dir will call FoFMem   1 times, MxPair=        20
 NAB=    10 NAA=     0 NBB=     0.
 Vector Nr. 160
 **********************
 DD1Dir will call FoFMem   1 times, MxPair=        20
 NAB=    10 NAA=     0 NBB=     0.
 Vector Nr. 161
 **********************
 DD1Dir will call FoFMem   1 times, MxPair=        20
 NAB=    10 NAA=     0 NBB=     0.
 Vector Nr. 162
 **********************
 DD1Dir will call FoFMem   1 times, MxPair=        20
 NAB=    10 NAA=     0 NBB=     0.
 Vector Nr. 163
 **********************
 DD1Dir will call FoFMem   1 times, MxPair=        20
 NAB=    10 NAA=     0 NBB=     0.
 Vector Nr. 164
 **********************
 DD1Dir will call FoFMem   1 times, MxPair=        20
 NAB=    10 NAA=     0 NBB=     0.
 Actual subspace dimension: NDim= 164, NOld= 154, NNew=  10
 Right eigenvalues (eV) at iteration   16
 Root  1 =   12.168251883414
 Root  2 =   12.168256420583
 Root  3 =   12.168263595306
 Root  4 =   13.839610577376
 Root  5 =   13.839614823687
 Root  6 =   13.839617844073
 Root  7 =   14.138773068227
 Root  8 =   14.138779026740
 Root  9 =   14.289900577267
 Root 10 =   14.289903303863
 Norms of the Right Residuals
 Root I=  1 Norm= 1.78D-08 Max= 5.71D-10
 Root I=  2 Norm= 2.24D-08 Max= 6.78D-10
 Root I=  3 Norm= 2.03D-08 Max= 6.15D-10
 Root I=  4 Norm= 1.91D-08 Max= 6.97D-10
 Root I=  5 Norm= 1.80D-08 Max= 6.65D-10
 Root I=  6 Norm= 1.80D-08 Max= 6.65D-10
 Root I=  7 Norm= 2.08D-08 Max= 6.51D-10
 Root I=  8 Norm= 1.97D-08 Max= 7.30D-10
 Root I=  9 Norm= 1.04D-06 Max= 5.76D-08
[...]
     4      1     9      1    0.344450
     5      1     8      1    0.329512
 Beta  Singles Amplitudes
     I    SymI    A    SymA    Value
     3      1     8      1    0.348308
     4      1     7      1    0.339651
     4      1     9      1    0.344450
     5      1     8      1    0.329512
 Left  Eigenvector 
 Alpha Singles Amplitudes
     I    SymI    A    SymA    Value
     3      1     8      1    0.346968
     4      1     7      1    0.338336
     4      1     9      1    0.343170
     5      1     8      1    0.328276
 Beta  Singles Amplitudes
     I    SymI    A    SymA    Value
     3      1     8      1    0.346968
     4      1     7      1    0.338336
     4      1     9      1    0.343170
     5      1     8      1    0.328276
 Ground to excited state transition densities written to RWF  633
 SavETr:  write IOETrn=   770 NScale= 10 NData=  16 NLR=2 NState=   10 LETran=     350.

 EOM-CCSD Z-AMPLITUDE ITERATIONS


 State   1 of Irrep   1

 Iteration Nr.   1
 **********************
 DD1Dir will call FoFMem   1 times, MxPair=        20
 NAB=    10 NAA=     0 NBB=     0.
 Restarting extrapolation.
 Maximum subspace dimension=  5
 A-vector RMS=  2.2980957D-03 Max=  4.8897743D-03 conv= 1.00D-06.
 RLE energy=       -0.1146938828
 DE(Z)= -0.11340505     E(Z)=     -40.311705005     Delta= 6.76D-02
 NORM(A)=   0.10261249D+01
 Iteration Nr.   2
 **********************
 DD1Dir will call FoFMem   1 times, MxPair=        20
 NAB=    10 NAA=     0 NBB=     0.
 A-vector RMS=  9.3898274D-04 Max=  2.6474912D-03 conv= 1.00D-06.
 RLE energy=       -0.1172387807
 DE(Z)= -0.11651541     E(Z)=     -40.314815363     Delta=-3.11D-03
 NORM(A)=   0.10279503D+01
 Iteration Nr.   3
 **********************
 DD1Dir will call FoFMem   1 times, MxPair=        20
 NAB=    10 NAA=     0 NBB=     0.
 A-vector RMS=  1.7872926D-04 Max=  3.4876825D-04 conv= 1.00D-06.
 RLE energy=       -0.1173681272
 DE(Z)= -0.11724322     E(Z)=     -40.315543174     Delta=-7.28D-04
 NORM(A)=   0.10281614D+01
 Iteration Nr.   4
 **********************
 DD1Dir will call FoFMem   1 times, MxPair=        20
 NAB=    10 NAA=     0 NBB=     0.
 A-vector RMS=  4.5737672D-05 Max=  1.0797152D-04 conv= 1.00D-06.
 RLE energy=       -0.1173642407
 DE(Z)= -0.11736031     E(Z)=     -40.315660261     Delta=-1.17D-04
 NORM(A)=   0.10281917D+01
 Iteration Nr.   5
 **********************
 DD1Dir will call FoFMem   1 times, MxPair=        20
 NAB=    10 NAA=     0 NBB=     0.
 A-vector RMS=  8.5709412D-06 Max=  2.3048172D-05 conv= 1.00D-06.
 RLE energy=       -0.1173655867
 DE(Z)= -0.11736539     E(Z)=     -40.315665347     Delta=-5.09D-06
 NORM(A)=   0.10281922D+01
 Iteration Nr.   6
 **********************
 DD1Dir will call FoFMem   1 times, MxPair=        20
 NAB=    10 NAA=     0 NBB=     0.
 A-vector RMS=  1.7691370D-06 Max=  4.6607298D-06 conv= 1.00D-06.
 RLE energy=       -0.1173656354
 DE(Z)= -0.11736555     E(Z)=     -40.315665498     Delta=-1.51D-07
 NORM(A)=   0.10281921D+01
 Iteration Nr.   7
 **********************
 DD1Dir will call FoFMem   1 times, MxPair=        20
 NAB=    10 NAA=     0 NBB=     0.
 A-vector RMS=  3.3372863D-07 Max=  9.2531394D-07 conv= 1.00D-06.
 RLE energy=       -0.1173656304
 DE(Z)= -0.11736558     E(Z)=     -40.315665534     Delta=-3.58D-08
 NORM(A)=   0.10281921D+01
 Iteration Nr.   8
 **********************
 DD1Dir will call FoFMem   1 times, MxPair=        20
 NAB=    10 NAA=     0 NBB=     0.
 A-vector RMS=  8.5124893D-08 Max=  2.0589292D-07 conv= 1.00D-06.
 RLE energy=       -0.1173655845
 DE(Z)= -0.11736559     E(Z)=     -40.315665538     Delta=-4.57D-09
 NORM(A)=   0.10281920D+01
 CI/CC converged in    8 iterations to DelEn=-4.57D-09 Conv= 1.00D-08 ErrA1= 8.51D-08 Conv= 1.00D-06
 Z-amplitudes converged.
 Discarding MO integrals.
 Leave Link  913 at Tue Dec 14 23:11:39 2021, MaxMem=   536870912 cpu:              54.6 elap:              14.2
 (Enter /opt/gaussian/g16/sse4/g16/l1111.exe)
 Unit  1 TFree=       1049685 TCopy=       5590659.
 Selected functions:
 Compute EOM-CCSD 2PDM.
 IO1PDM=    0 IOW=    0 IO2PDM=    0.
 MDV=     536870912.
 Frozen-core window:  NFC=   1 NFV=   0.
 Leave Link 1111 at Tue Dec 14 23:11:41 2021, MaxMem=   536870912 cpu:               4.1 elap:               1.0
 (Enter /opt/gaussian/g16/sse4/g16/l1002.exe)
 Minotr:  Closed shell wavefunction.
          Computing CCSD/QCISD derivatives.
          Using Z-Vector for PSCF gradient.
          Skipping F1 and S1 gradient terms here.
          Frozen-core window.
          Direct CPHF calculation.
          Differentiating once with respect to electric field.
                with respect to dipole field.
          Electric field/nuclear overlap derivatives assumed to be zero.
          Requested convergence is 1.0D-10 RMS, and 1.0D-09 maximum.
          NewPWx=F KeepS1=T KeepF1=T KeepIn=T MapXYZ=F SortEE=F KeepMc=T.
 Keep R1 ints in memory in canonical form, NReq=1016197.
 FoFCou: FMM=F IPFlag=           0 FMFlag=           0 FMFlg1=           0
         NFxFlg=           0 DoJE=F BraDBF=F KetDBF=F FulRan=T
         wScrn=  0.000000 ICntrl=       600 IOpCl=  0 I1Cent=           0 NGrid=           0
         NMat0=    1 NMatS0=    595 NMatT0=    0 NMatD0=    1 NMtDS0=    0 NMtDT0=    0
 Symmetry not used in FoFCou.
 Two-electron integral symmetry not used.
          MDV=     536870912 using IRadAn=       5.
          Solving linear equations separately, MaxMat=       0.
          There are     1 degrees of freedom in the 1st order CPHF.  IDoFFX=0 NUNeed=     1.
 LinEq1:  Iter=  0 NonCon=     1 RMS=3.79D-02 Max=2.06D-01 NDo=     1
 AX will form     1 AO Fock derivatives at one time.
 LinEq1:  Iter=  1 NonCon=     1 RMS=6.37D-03 Max=4.76D-02 NDo=     1
 LinEq1:  Iter=  2 NonCon=     1 RMS=1.21D-03 Max=8.18D-03 NDo=     1
 LinEq1:  Iter=  3 NonCon=     1 RMS=1.93D-04 Max=1.27D-03 NDo=     1
 LinEq1:  Iter=  4 NonCon=     1 RMS=1.75D-05 Max=1.10D-04 NDo=     1
 LinEq1:  Iter=  5 NonCon=     1 RMS=1.30D-06 Max=7.04D-06 NDo=     1
 LinEq1:  Iter=  6 NonCon=     1 RMS=1.04D-07 Max=4.93D-07 NDo=     1
 LinEq1:  Iter=  7 NonCon=     1 RMS=6.80D-09 Max=3.02D-08 NDo=     1
 LinEq1:  Iter=  8 NonCon=     1 RMS=5.69D-10 Max=2.48D-09 NDo=     1
 LinEq1:  Iter=  9 NonCon=     0 RMS=5.80D-11 Max=3.15D-10 NDo=     1
 Linear equations converged to 1.000D-10 1.000D-09 after     9 iterations.
 End of Minotr F.D. properties file   721 does not exist.
 End of Minotr F.D. properties file   722 does not exist.
 End of Minotr F.D. properties file   788 does not exist.
 Leave Link 1002 at Tue Dec 14 23:11:41 2021, MaxMem=   536870912 cpu:               1.9 elap:               0.5
 (Enter /opt/gaussian/g16/sse4/g16/l601.exe)
 Copying SCF densities to generalized density rwf, IOpCl= 0 IROHF=0.

 **********************************************************************

            Population analysis using the QCI/CC density.

 **********************************************************************

 Alpha  occ. eigenvalues --  -11.22229  -0.93657  -0.53934  -0.53928  -0.53916
 Alpha virt. eigenvalues --    0.19132   0.27154   0.27186   0.27242   0.59016
 Alpha virt. eigenvalues --    0.59026   0.59032   0.88262   0.88272   0.88290
 Alpha virt. eigenvalues --    0.91785   1.12975   1.12975   1.25439   1.67521
 Alpha virt. eigenvalues --    1.67535   1.67544   1.88021   1.88023   1.88027
 Alpha virt. eigenvalues --    2.19847   2.19856   2.19861   2.52166   2.52167
 Alpha virt. eigenvalues --    2.71050   2.76591   2.76598   2.76610
          Condensed to atoms (all electrons):
               1          2          3          4          5
     1  C    9.342818  -0.780389  -1.266990  -0.826525  -0.824612
     2  H   -0.780389   1.064654   0.333024   0.253140   0.252958
     3  H   -1.266990   0.333024   1.251789   0.349260   0.348703
     4  H   -0.826525   0.253140   0.349260   1.078050   0.254086
     5  H   -0.824612   0.252958   0.348703   0.254086   1.077376
 Mulliken charges:
               1
     1  C    0.355697
     2  H   -0.123387
     3  H   -0.015787
     4  H   -0.108011
     5  H   -0.108511
 Sum of Mulliken charges =  -0.00000
 Mulliken charges with hydrogens summed into heavy atoms:
               1
     1  C   -0.000000
 Electronic spatial extent (au):  <R**2>=             44.7331
 Charge=             -0.0000 electrons
 Dipole moment (field-independent basis, Debye):
    X=             -0.1015    Y=              0.0534    Z=              0.3949  Tot=              0.4112
 Quadrupole moment (field-independent basis, Debye-Ang):
   XX=            -12.4469   YY=            -12.6793   ZZ=            -11.6574
   XY=             -0.1620   XZ=             -0.6350   YZ=              0.3291
 Traceless Quadrupole moment (field-independent basis, Debye-Ang):
   XX=             -0.1857   YY=             -0.4181   ZZ=              0.6038
   XY=             -0.1620   XZ=             -0.6350   YZ=              0.3291
 Octapole moment (field-independent basis, Debye-Ang**2):
  XXX=              0.1109  YYY=              0.4002  ZZZ=             -1.0032  XYY=             -0.0112
  XXY=             -0.4481  XXZ=             -0.1369  XZZ=              0.4037  YZZ=             -0.2168
  YYZ=             -0.2683  XYZ=             -0.1124
 Hexadecapole moment (field-independent basis, Debye-Ang**3):
 XXXX=            -34.9690 YYYY=            -35.1267 ZZZZ=            -35.5160 XXXY=             -0.0019
 XXXZ=             -0.0554 YYYX=             -0.1162 YYYZ=              0.0788 ZZZX=              0.0238
 ZZZY=             -0.0166 XXYY=            -11.7148 XXZZ=            -11.7298 YYZZ=            -11.8098
 XXYZ=             -0.0381 YYXZ=             -0.0238 ZZXY=             -0.0631
 N-N= 1.327434591516D+01 E-N=-1.184382993766D+02  KE= 4.044011042855D+01
 No NMR shielding tensors so no spin-rotation constants.
 Leave Link  601 at Tue Dec 14 23:11:41 2021, MaxMem=   536870912 cpu:               0.4 elap:               0.1
 (Enter /opt/gaussian/g16/sse4/g16/l106.exe)
 NDeriv=      3 NFrqRd=  0 NDerD0=      0 MskFDP=       0 MskDFD=       0 MskDF0=       0
 Re-enter D2Numr:  atom   0 IXYZ=3 step-down number 1
 Max difference between analytic and numerical Dipole moment IMax=       1 EMax= 1.10D-01
 Max difference between off-diagonal Polarizability IMax=       1 JMax=       2 EMax= 1.30D+02
 Isotropic polarizability=      424.71 Bohr**3.
                1             2             3 
      1  0.433645D+03
      2  0.235869D+02  0.407600D+03
      3  0.297620D+02 -0.514460D+02  0.432890D+03
 FinFTb:  IFil= 1 IFilD=  777 LTop=  1 LFil=         4 LTop1=  0 IMask=  1
 Leave Link  106 at Tue Dec 14 23:11:42 2021, MaxMem=   536870912 cpu:               0.4 elap:               0.1
 (Enter /opt/gaussian/g16/sse4/g16/l9999.exe)
 Electronic transition elements 
                 1             2             3             4             5 
      1  -0.399367D+02 -0.399367D+02 -0.399366D+02 -0.398754D+02 -0.398752D+02
      2  -0.439068D+00 -0.445488D+00  0.694023D+00 -0.560276D-02  0.198781D-01
      3   0.227083D+00 -0.820534D+00 -0.383972D+00 -0.108670D-01 -0.108531D-01
      4   0.785400D+00 -0.118161D-01  0.499028D+00 -0.412672D-05 -0.243259D-03
      5  -0.205004D+00 -0.207962D+00  0.323946D+00 -0.287148D-02  0.101903D-01
      6   0.106027D+00 -0.383039D+00 -0.179225D+00 -0.556946D-02 -0.556367D-02
      7   0.366708D+00 -0.551598D-02  0.232928D+00 -0.210797D-05 -0.126364D-03
      8   0.772217D-03 -0.274044D-02 -0.127152D-02  0.355631D+00  0.361439D+00
      9   0.149171D-02  0.148766D-02 -0.229870D-02 -0.183098D+00  0.661703D+00
     10   0.000000D+00  0.184005D-04  0.000000D+00 -0.640094D+00  0.115330D-01
     11   0.000000D+00  0.000000D+00  0.000000D+00  0.000000D+00  0.000000D+00
     12   0.000000D+00  0.000000D+00  0.000000D+00  0.000000D+00  0.000000D+00
     13   0.000000D+00  0.000000D+00  0.000000D+00  0.000000D+00  0.000000D+00
     14   0.000000D+00  0.000000D+00  0.000000D+00  0.000000D+00  0.000000D+00
     15   0.000000D+00  0.000000D+00  0.000000D+00  0.000000D+00  0.000000D+00
     16   0.000000D+00  0.000000D+00  0.000000D+00  0.000000D+00  0.000000D+00
     17  -0.399367D+02 -0.399367D+02 -0.399366D+02 -0.398754D+02 -0.398752D+02
     18  -0.447283D+00 -0.453827D+00  0.707058D+00 -0.571552D-02  0.202789D-01
     19   0.231331D+00 -0.835953D+00 -0.391222D+00 -0.110859D-01 -0.110720D-01
     20   0.800102D+00 -0.120196D-01  0.508417D+00 -0.428607D-05 -0.247663D-03
     21  -0.208267D+00 -0.211275D+00  0.329128D+00 -0.292486D-02  0.103801D-01
     22   0.107714D+00 -0.389169D+00 -0.182109D+00 -0.567306D-02 -0.566738D-02
     23   0.372549D+00 -0.559561D-02  0.236662D+00 -0.218327D-05 -0.128435D-03
     24   0.792231D-03 -0.281183D-02 -0.130479D-02  0.363369D+00  0.369302D+00
     25   0.153039D-02  0.152630D-02 -0.235859D-02 -0.187080D+00  0.676095D+00
     26   0.000000D+00  0.188170D-04  0.000000D+00 -0.654021D+00  0.117832D-01
     27   0.000000D+00  0.000000D+00  0.000000D+00  0.000000D+00  0.000000D+00
     28   0.000000D+00  0.000000D+00  0.000000D+00  0.000000D+00  0.000000D+00
     29   0.000000D+00  0.000000D+00  0.000000D+00  0.000000D+00  0.000000D+00
     30   0.000000D+00  0.000000D+00  0.000000D+00  0.000000D+00  0.000000D+00
     31   0.000000D+00  0.000000D+00  0.000000D+00  0.000000D+00  0.000000D+00
     32   0.000000D+00  0.000000D+00  0.000000D+00  0.000000D+00  0.000000D+00
                 6             7             8             9            10 
      1  -0.398751D+02 -0.398643D+02 -0.398642D+02 -0.398588D+02 -0.398587D+02
      2  -0.932487D-02  0.203610D-01 -0.135225D-01  0.799091D+00 -0.521333D+00
      3  -0.166874D-01  0.371679D-01  0.789771D-02 -0.445996D+00 -0.956546D+00
      4   0.169769D-05  0.917490D-03 -0.221497D-01  0.587663D+00 -0.170470D-01
      5  -0.478131D-02  0.105820D-01 -0.702741D-02  0.418636D+00 -0.273187D+00
      6  -0.855644D-02  0.193170D-01  0.410434D-02 -0.233653D+00 -0.501246D+00
      7   0.000000D+00  0.476810D-03 -0.115118D-01  0.307873D+00 -0.893298D-02
      8   0.558721D+00 -0.782685D-02 -0.147374D-01 -0.571814D-02 -0.119261D-01
      9  -0.312155D+00  0.466225D-02 -0.269622D-01 -0.102626D-01  0.650942D-02
     10   0.399607D+00 -0.164298D-01 -0.668622D-03 -0.122890D-04 -0.484150D-03
     11   0.000000D+00  0.000000D+00  0.000000D+00  0.000000D+00  0.000000D+00
     12   0.000000D+00  0.000000D+00  0.000000D+00  0.000000D+00  0.000000D+00
     13   0.000000D+00  0.000000D+00  0.000000D+00  0.000000D+00  0.000000D+00
     14   0.000000D+00  0.000000D+00  0.000000D+00  0.000000D+00  0.000000D+00
     15   0.000000D+00  0.000000D+00  0.000000D+00  0.000000D+00  0.000000D+00
     16   0.000000D+00  0.000000D+00  0.000000D+00  0.000000D+00  0.000000D+00
     17  -0.398751D+02 -0.398643D+02 -0.398642D+02 -0.398588D+02 -0.398587D+02
     18  -0.951298D-02  0.207596D-01 -0.137902D-01  0.816414D+00 -0.532639D+00
     19  -0.170241D-01  0.378956D-01  0.805434D-02 -0.455660D+00 -0.977285D+00
     20   0.171571D-05  0.935355D-03 -0.225826D-01  0.600403D+00 -0.174185D-01
     21  -0.487048D-02  0.107742D-01 -0.715664D-02  0.427170D+00 -0.278758D+00
     22  -0.871599D-02  0.196677D-01  0.417994D-02 -0.238414D+00 -0.511465D+00
     23   0.000000D+00  0.485419D-03 -0.117205D-01  0.314150D+00 -0.911610D-02
     24   0.570872D+00 -0.799953D-02 -0.150606D-01 -0.584578D-02 -0.121921D-01
     25  -0.318943D+00  0.476487D-02 -0.275530D-01 -0.104918D-01  0.665472D-02
     26   0.408298D+00 -0.167897D-01 -0.683402D-03 -0.125722D-04 -0.495584D-03
     27   0.000000D+00  0.000000D+00  0.000000D+00  0.000000D+00  0.000000D+00
     28   0.000000D+00  0.000000D+00  0.000000D+00  0.000000D+00  0.000000D+00
     29   0.000000D+00  0.000000D+00  0.000000D+00  0.000000D+00  0.000000D+00
     30   0.000000D+00  0.000000D+00  0.000000D+00  0.000000D+00  0.000000D+00
     31   0.000000D+00  0.000000D+00  0.000000D+00  0.000000D+00  0.000000D+00
     32   0.000000D+00  0.000000D+00  0.000000D+00  0.000000D+00  0.000000D+00

 ----------------------------------------------------------------------

 Electric dipole moment (input orientation):
 (Debye = 10**-18 statcoulomb cm , SI units = C m)
                  (au)            (Debye)         (10**-30 SI)
   Tot        0.129767D+00      0.329835D+00      0.110021D+01
   x         -0.990845D-01     -0.251848D+00     -0.840073D+00
   y          0.539212D-01      0.137054D+00      0.457163D+00
   z          0.641428D-01      0.163035D+00      0.543826D+00

 Dipole polarizability, Alpha (input orientation).
 (esu units = cm**3 , SI units = C**2 m**2 J**-1)
 Alpha(0;0):
               (au)            (10**-24 esu)      (10**-40 SI)
   iso        0.424712D+03      0.629358D+02      0.700255D+02
   aniso      0.113691D+03      0.168473D+02      0.187452D+02
   xx         0.433645D+03      0.642595D+02      0.714984D+02
   yx         0.235869D+02      0.349522D+01      0.388896D+01
   yy         0.407600D+03      0.604000D+02      0.672041D+02
   zx         0.297620D+02      0.441028D+01      0.490710D+01
   zy        -0.514460D+02     -0.762352D+01     -0.848231D+01
   zz         0.432890D+03      0.641477D+02      0.713739D+02

 ----------------------------------------------------------------------

 Dipole orientation:
     6          0.00000009          0.00000036         -0.00000039
     1         -1.75842511          0.96390218          0.57025130
     1          1.05114320         -0.59146927          1.70047442
     1          1.17463151          1.30489561         -1.12420817
     1         -0.46735012         -1.67733067         -1.14651521

 Electric dipole moment (dipole orientation):
 (Debye = 10**-18 statcoulomb cm , SI units = C m)
                  (au)            (Debye)         (10**-30 SI)
   Tot        0.129767D+00      0.329835D+00      0.110021D+01
   x          0.000000D+00      0.000000D+00      0.000000D+00
   y          0.000000D+00      0.000000D+00      0.000000D+00
   z          0.129767D+00      0.329835D+00      0.110021D+01

 Dipole polarizability, Alpha (dipole orientation).
 (esu units = cm**3 , SI units = C**2 m**2 J**-1)
 Alpha(0;0):
               (au)            (10**-24 esu)      (10**-40 SI)
   iso        0.424712D+03      0.629358D+02      0.700255D+02
   aniso      0.113691D+03      0.168473D+02      0.187452D+02
   xx         0.449175D+03      0.665609D+02      0.740589D+02
   yx        -0.237870D+02     -0.352486D+01     -0.392194D+01
   yy         0.454562D+03      0.673591D+02      0.749471D+02
   zx        -0.305319D+02     -0.452436D+01     -0.503403D+01
   zy        -0.243071D+02     -0.360194D+01     -0.400770D+01
   zz         0.370398D+03      0.548873D+02      0.610704D+02

 ----------------------------------------------------------------------
 1\1\GINC-NODE664\SP\REOMCCSD-FC\CC-pVDZ\C1H4\THEOB\14-Dec-2021\0\\#p e
 omccsd=(nstate=10)/cc-pvdz guess=read geom=allcheck polar\\Methane.xyz
 \\0,1\C,0,1.0182499866,0.0931500136,0.0314714326\H,0,2.1214737912,0.09
 31521774,0.0314690649\H,0,0.6505137017,-0.6098215622,0.7980898016\H,0,
 0.6505052523,-0.2192744079,-0.9606262424\H,0,0.6505072682,1.1085437792
 ,0.2569559434\\Version=ES64L-G16RevA.03\HF=-40.1982992\MP2=-40.3601397
 \MP3=-40.3805048\RMSD=0.000e+00\Dipole=-0.0990845,0.0539212,0.0641428\
 Polar=433.6449127,23.5869283,407.5996332,29.7620248,-51.4460454,432.89
 01075\PG=C01 [X(C1H4)]\\@


 O WAD SOME POWER THE GIFTIE GIE US       
 TO SEE OURSELS AS OTHERS SEE US.....     
 IT WOULD FRAE MONIE A BLUNDER FREE US,   
                     AND FOOLISH NOTION...
 WHAT AIRS IN DRESS AND GAIT WAD LEA'E US,
                     AND EV'N DEVOTION....
                                          
              (ROBERT BURNS 'TO A LOUSE') 
 Job cpu time:       0 days  0 hours  8 minutes  1.6 seconds.
 Elapsed time:       0 days  0 hours  2 minutes  2.6 seconds.
 File lengths (MBytes):  RWF=    108 Int=      0 D2E=      0 Chk=     44 Scr=      1
 Normal termination of Gaussian 16 at Tue Dec 14 23:11:51 2021.
