 Entering Gaussian System, Link 0=/opt/gaussian/g16/sse4/g16/g16
 Initial command:
 /opt/gaussian/g16/sse4/g16/l1.exe "/scratch/1549224/Gau-30043.inp" -scrdir="/scratch/1549224/"
 Entering Link 1 = /opt/gaussian/g16/sse4/g16/l1.exe PID=     30045.
  
 Copyright (c) 1988,1990,1992,1993,1995,1998,2003,2009,2016,
            Gaussian, Inc.  All Rights Reserved.
  
 This is part of the Gaussian(R) 16 program.  It is based on
 the Gaussian(R) 09 system (copyright 2009, Gaussian, Inc.),
 the Gaussian(R) 03 system (copyright 2003, Gaussian, Inc.),
 the Gaussian(R) 98 system (copyright 1998, Gaussian, Inc.),
 the Gaussian(R) 94 system (copyright 1995, Gaussian, Inc.),
 the Gaussian 92(TM) system (copyright 1992, Gaussian, Inc.),
 the Gaussian 90(TM) system (copyright 1990, Gaussian, Inc.),
 the Gaussian 88(TM) system (copyright 1988, Gaussian, Inc.),
 the Gaussian 86(TM) system (copyright 1986, Carnegie Mellon
 University), and the Gaussian 82(TM) system (copyright 1983,
 Carnegie Mellon University). Gaussian is a federally registered
 trademark of Gaussian, Inc.
  
 This software contains proprietary and confidential information,
 including trade secrets, belonging to Gaussian, Inc.
  
 This software is provided under written license and may be
 used, copied, transmitted, or stored only in accord with that
 written license.
  
 The following legend is applicable only to US Government
 contracts under FAR:
  
                    RESTRICTED RIGHTS LEGEND
  
 Use, reproduction and disclosure by the US Government is
 subject to restrictions as set forth in subparagraphs (a)
 and (c) of the Commercial Computer Software - Restricted
 Rights clause in FAR 52.227-19.
  
 Gaussian, Inc.
 340 Quinnipiac St., Bldg. 40, Wallingford CT 06492
  
  
 ---------------------------------------------------------------
 Warning -- This program may not be used in any manner that
 competes with the business of Gaussian, Inc. or will provide
 assistance to any competitor of Gaussian, Inc.  The licensee
 of this program is prohibited from giving any competitor of
 Gaussian, Inc. access to this program.  By using this program,
 the user acknowledges that Gaussian, Inc. is engaged in the
 business of creating and licensing software in the field of
 computational chemistry and represents and warrants to the
 licensee that it is not a competitor of Gaussian, Inc. and that
 it will not use this program in any manner prohibited above.
 ---------------------------------------------------------------
  

 Cite this work as:
 Gaussian 16, Revision A.03,
 M. J. Frisch, G. W. Trucks, H. B. Schlegel, G. E. Scuseria, 
 M. A. Robb, J. R. Cheeseman, G. Scalmani, V. Barone, 
 G. A. Petersson, H. Nakatsuji, X. Li, M. Caricato, A. V. Marenich, 
 J. Bloino, B. G. Janesko, R. Gomperts, B. Mennucci, H. P. Hratchian, 
 J. V. Ortiz, A. F. Izmaylov, J. L. Sonnenberg, D. Williams-Young, 
 F. Ding, F. Lipparini, F. Egidi, J. Goings, B. Peng, A. Petrone, 
 T. Henderson, D. Ranasinghe, V. G. Zakrzewski, J. Gao, N. Rega, 
 G. Zheng, W. Liang, M. Hada, M. Ehara, K. Toyota, R. Fukuda, 
 J. Hasegawa, M. Ishida, T. Nakajima, Y. Honda, O. Kitao, H. Nakai, 
 T. Vreven, K. Throssell, J. A. Montgomery, Jr., J. E. Peralta, 
 F. Ogliaro, M. J. Bearpark, J. J. Heyd, E. N. Brothers, K. N. Kudin, 
 V. N. Staroverov, T. A. Keith, R. Kobayashi, J. Normand, 
 K. Raghavachari, A. P. Rendell, J. C. Burant, S. S. Iyengar, 
 J. Tomasi, M. Cossi, J. M. Millam, M. Klene, C. Adamo, R. Cammi, 
 J. W. Ochterski, R. L. Martin, K. Morokuma, O. Farkas, 
 J. B. Foresman, and D. J. Fox, Gaussian, Inc., Wallingford CT, 2016.
 
 ******************************************
 Gaussian 16:  ES64L-G16RevA.03 25-Dec-2016
                14-Dec-2021 
 ******************************************
 %chk=CCSD_Ethanol_gaus.chk
 %nprocshared=4
 Will use up to    4 processors via shared memory.
 %mem=4GB
 -------------------------------------------------------------
 #p eomccsd=(nstate=10)/cc-pvdz guess=read geom=allcheck polar
 -------------------------------------------------------------
 1/29=7,30=1,38=101,172=1/1,6;
 2/12=2,40=1/2;
 3/5=16,11=9,14=-4,25=1,30=1,71=1,116=-2/1,2,3,8;
 4/5=1,69=2/1;
 5/5=2,38=6,98=1/2;
 8/6=1,10=1,68=101,105=8,108=10/1;
 9/41=10,42=1,68=1/14;
 8/6=4,9=120000,10=92,68=1,105=8,108=10/1,4;
 9/5=7,15=1,41=10,68=1/13;
 11/28=-16,32=3,42=3/11;
 10/5=6,13=10/2;
 6/7=2,8=2,9=2,10=2,22=-1/1;
 1/38=100/6(1);
 99/9=1/99;
 3/5=16,11=9,14=-3,25=1,30=1,71=1/1,2,3,8;
 4/5=5,16=3,69=2,133=2/1;
 5/5=2,38=5,98=1/2;
 8/6=4,9=120000,10=92,24=1,68=1,69=-2,105=8,108=10/1,4;
 9/5=7,15=1,41=10,68=1,114=-2/13;
 11/28=-16,32=3,42=3/11;
 10/5=6,13=10/2;
 6/7=2,8=2,9=2,10=2,22=-1/1;
 1/38=100/6(-8);
 99/9=1/99;
 Leave Link    1 at Tue Dec 14 23:09:12 2021, MaxMem=   536870912 cpu:               0.3 elap:               0.1
 (Enter /opt/gaussian/g16/sse4/g16/l101.exe)
 Structure from the checkpoint file:  "CCSD_Ethanol_gaus.chk"
 -----------
 Ethanol.xyz
 -----------
 Charge =  0 Multiplicity = 1
 Redundant internal coordinates found in file.  (old form).
 C,0,0.9948743283,0.0732900124,-0.0591908094
 C,0,2.5228451155,0.0918523346,-0.0922660144
 O,0,3.0394328832,1.2615715497,-0.7121897742
 H,0,0.6198572477,-0.81506082,0.4813034538
 H,0,0.5808924317,0.0440473861,-1.0855296139
 H,0,0.6128795877,0.9813529612,0.4395066006
 H,0,2.9029113278,-0.8286176352,-0.5851257055
 H,0,2.9242699479,0.0970075245,0.9363763547
 H,0,2.7108171303,1.2569866865,-1.6204944918
 Recover connectivity data from disk.
 ITRead=  0  0  0  0  0  0  0  0  0
 MicOpt= -1 -1 -1 -1 -1 -1 -1 -1 -1
                           ----------------------------
                           !    Current Parameters    !
                           ! (Angstroms and Degrees)  !
 --------------------------                            --------------------------
 ! Name  Definition              Value                                          !
 --------------------------------------------------------------------------------
 ! R1    R(1,2)                  1.5284                                         !
 ! R2    R(1,4)                  1.1054                                         !
 ! R3    R(1,5)                  1.1071                                         !
 ! R4    R(1,6)                  1.1042                                         !
 ! R5    R(2,3)                  1.4211                                         !
 ! R6    R(2,7)                  1.1111                                         !
 ! R7    R(2,8)                  1.1042                                         !
 ! R8    R(3,9)                  0.9659                                         !
 ! A1    A(2,1,4)              111.069                                          !
 ! A2    A(2,1,5)              110.7375                                         !
 ! A3    A(2,1,6)              110.2206                                         !
 ! A4    A(4,1,5)              107.7705                                         !
 ! A5    A(4,1,6)              108.8265                                         !
 ! A6    A(5,1,6)              108.1235                                         !
 ! A7    A(1,2,3)              112.5102                                         !
 ! A8    A(1,2,7)              109.9673                                         !
 ! A9    A(1,2,8)              110.0797                                         !
 ! A10   A(3,2,7)              111.3486                                         !
 ! A11   A(3,2,8)              105.6874                                         !
 ! A12   A(7,2,8)              107.0213                                         !
 ! A13   A(2,3,9)              106.4175                                         !
 ! D1    D(4,1,2,3)           -176.5554                                         !
 ! D2    D(4,1,2,7)             58.7057                                         !
 ! D3    D(4,1,2,8)            -58.9668                                         !
 ! D4    D(5,1,2,3)             63.736                                          !
 ! D5    D(5,1,2,7)            -61.0029                                         !
 ! D6    D(5,1,2,8)           -178.6754                                         !
 ! D7    D(6,1,2,3)            -55.8626                                         !
 ! D8    D(6,1,2,7)            179.3985                                         !
 ! D9    D(6,1,2,8)             61.726                                          !
 ! D10   D(1,2,3,9)            -61.1179                                         !
 ! D11   D(7,2,3,9)             62.8591                                         !
 ! D12   D(8,2,3,9)            178.7224                                         !
 --------------------------------------------------------------------------------
 NAtoms=      9 NQM=        9 NQMF=       0 NMMI=      0 NMMIF=      0
                NMic=       0 NMicF=      0.
                    Isotopes and Nuclear Properties:
 (Nuclear quadrupole moments (NQMom) in fm**2, nuclear magnetic moments (NMagM)
  in nuclear magnetons)

  Atom         1           2           3           4           5           6           7           8           9
 IAtWgt=          12          12          16           1           1           1           1           1           1
 AtmWgt=  12.0000000  12.0000000  15.9949146   1.0078250   1.0078250   1.0078250   1.0078250   1.0078250   1.0078250
 NucSpn=           0           0           0           1           1           1           1           1           1
 AtZEff=   3.6000000   3.6000000   5.6000000   1.0000000   1.0000000   1.0000000   1.0000000   1.0000000   1.0000000
 NQMom=    0.0000000   0.0000000   0.0000000   0.0000000   0.0000000   0.0000000   0.0000000   0.0000000   0.0000000
 NMagM=    0.0000000   0.0000000   0.0000000   2.7928460   2.7928460   2.7928460   2.7928460   2.7928460   2.7928460
 AtZNuc=   6.0000000   6.0000000   8.0000000   1.0000000   1.0000000   1.0000000   1.0000000   1.0000000   1.0000000
 Leave Link  101 at Tue Dec 14 23:09:12 2021, MaxMem=   536870912 cpu:               0.8 elap:               0.2
 (Enter /opt/gaussian/g16/sse4/g16/l106.exe)
 Differentiate once with respect to electric field.
 Nuclear step= 0.001000 Angstroms, electric field step= 0.000333 atomic units, NStep=1.
 Leave Link  106 at Tue Dec 14 23:09:12 2021, MaxMem=   536870912 cpu:               0.0 elap:               0.0
 (Enter /opt/gaussian/g16/sse4/g16/l202.exe)
                          Input orientation:                          
 ---------------------------------------------------------------------
 Center     Atomic      Atomic             Coordinates (Angstroms)
 Number     Number       Type             X           Y           Z
 ---------------------------------------------------------------------
      1          6           0        0.994874    0.073290   -0.059191
      2          6           0        2.522845    0.091852   -0.092266
      3          8           0        3.039433    1.261572   -0.712190
      4          1           0        0.619857   -0.815061    0.481303
      5          1           0        0.580892    0.044047   -1.085530
      6          1           0        0.612880    0.981353    0.439507
      7          1           0        2.902911   -0.828618   -0.585126
      8          1           0        2.924270    0.097008    0.936376
      9          1           0        2.710817    1.256987   -1.620494
 ---------------------------------------------------------------------
                    Distance matrix (angstroms):
                    1          2          3          4          5
     1  C    0.000000
     2  C    1.528441   0.000000
     3  O    2.453292   1.421060   0.000000
     4  H    1.105414   2.184682   3.404581   0.000000
     5  H    1.107072   2.181751   2.768785   1.787331   0.000000
     6  H    1.104173   2.173008   2.700572   1.796914   1.790335
     7  H    2.175006   1.111137   2.098493   2.519879   2.530557
     8  H    2.171240   1.104207   2.021693   2.519777   3.095533
     9  H    2.604471   1.930895   0.965933   3.617050   2.508782
                    6          7          8          9
     6  H    0.000000
     7  H    3.093559   0.000000
     8  H    2.524177   1.781069   0.000000
     9  H    2.953120   2.336372   2.815795   0.000000
 Stoichiometry    C2H6O
 Framework group  C1[X(C2H6O)]
 Deg. of freedom    21
 Full point group                 C1      NOp   1
 RotChk:  IX=0 Diff= 7.69D-16
 Largest Abelian subgroup         C1      NOp   1
 Largest concise Abelian subgroup C1      NOp   1
                         Standard orientation:                         
 ---------------------------------------------------------------------
 Center     Atomic      Atomic             Coordinates (Angstroms)
 Number     Number       Type             X           Y           Z
 ---------------------------------------------------------------------
      1          6           0       -1.213803   -0.239120   -0.022418
      2          6           0        0.088520    0.557956    0.046562
      3          8           0        1.237856   -0.263242   -0.108594
      4          1           0       -2.092337    0.428946    0.039268
      5          1           0       -1.277469   -0.959333    0.815942
      6          1           0       -1.263894   -0.807277   -0.967873
      7          1           0        0.129619    1.136372    0.994386
      8          1           0        0.129940    1.288781   -0.780150
      9          1           0        1.222992   -0.894572    0.622316
 ---------------------------------------------------------------------
 Rotational constants (GHZ):          33.9515988           9.1734714           8.0993992
 Leave Link  202 at Tue Dec 14 23:09:12 2021, MaxMem=   536870912 cpu:               0.0 elap:               0.0
 (Enter /opt/gaussian/g16/sse4/g16/l301.exe)
 Standard basis: CC-pVDZ (5D, 7F)
 Ernie: Thresh=  0.10000D-02 Tol=  0.10000D-05 Strict=F.
 Ernie:  6 primitive shells out of 96 were deleted.
 There are    75 symmetry adapted cartesian basis functions of A   symmetry.
 There are    72 symmetry adapted basis functions of A   symmetry.
    72 basis functions,   141 primitive gaussians,    75 cartesian basis functions
    13 alpha electrons       13 beta electrons
       nuclear repulsion energy        81.3448875731 Hartrees.
 IExCor=    0 DFT=F Ex=HF Corr=None ExCW=0 ScaHFX=  1.000000
 ScaDFX=  1.000000  1.000000  1.000000  1.000000 ScalE2=  1.000000  1.000000
 IRadAn=      5 IRanWt=     -1 IRanGd=            0 ICorTp=0 IEmpDi=  4
 NAtoms=    9 NActive=    9 NUniq=    9 SFac= 1.00D+00 NAtFMM=   60 NAOKFM=F Big=F
 Integral buffers will be    131072 words long.
 Raffenetti 1 integral format.
 Two-electron integral symmetry is turned on.
 Leave Link  301 at Tue Dec 14 23:09:12 2021, MaxMem=   536870912 cpu:               0.1 elap:               0.0
 (Enter /opt/gaussian/g16/sse4/g16/l302.exe)
 NPDir=0 NMtPBC=     1 NCelOv=     1 NCel=       1 NClECP=     1 NCelD=      1
         NCelK=      1 NCelE2=     1 NClLst=     1 CellRange=     0.0.
 One-electron integrals computed using PRISM.
 One-electron integral symmetry used in STVInt
 NBasis=    72 RedAO= T EigKep=  6.61D-03  NBF=    72
 NBsUse=    72 1.00D-06 EigRej= -1.00D+00 NBFU=    72
 Leave Link  302 at Tue Dec 14 23:09:12 2021, MaxMem=   536870912 cpu:               0.5 elap:               0.1
 (Enter /opt/gaussian/g16/sse4/g16/l303.exe)
 DipDrv:  MaxL=1.
 Leave Link  303 at Tue Dec 14 23:09:12 2021, MaxMem=   536870912 cpu:               0.1 elap:               0.0
 (Enter /opt/gaussian/g16/sse4/g16/l308.exe)
 Leave Link  308 at Tue Dec 14 23:09:12 2021, MaxMem=   536870912 cpu:               0.1 elap:               0.0
 (Enter /opt/gaussian/g16/sse4/g16/l401.exe)
 Initial guess from the checkpoint file:  "CCSD_Ethanol_gaus.chk"
 B after Tr=    -0.000000   -0.000000   -0.000000
         Rot=    1.000000    0.000000    0.000000    0.000000 Ang=   0.00 deg.
 Guess basis will be translated and rotated to current coordinates.
 JPrj=2 DoOrth=T DoCkMO=T.
 Leave Link  401 at Tue Dec 14 23:09:13 2021, MaxMem=   536870912 cpu:               0.4 elap:               0.1
 (Enter /opt/gaussian/g16/sse4/g16/l502.exe)
 Keep R1 ints in memory in canonical form, NReq=4336443.
 FoFCou: FMM=F IPFlag=           0 FMFlag=           0 FMFlg1=           0
         NFxFlg=           0 DoJE=F BraDBF=F KetDBF=F FulRan=T
         wScrn=  0.000000 ICntrl=       600 IOpCl=  0 I1Cent=           0 NGrid=           0
         NMat0=    1 NMatS0=   2628 NMatT0=    0 NMatD0=    1 NMtDS0=    0 NMtDT0=    0
 Symmetry not used in FoFCou.
 Two-electron integral symmetry not used.
 Closed shell SCF:
 Using DIIS extrapolation, IDIIS=  1040.
 NGot=   536870912 LenX=   533403697 LenY=   533397631
 Requested convergence on RMS density matrix=1.00D-08 within 128 cycles.
 Requested convergence on MAX density matrix=1.00D-06.
 Requested convergence on             energy=1.00D-06.
 No special actions if energy rises.

 Cycle   1  Pass 1  IDiag  1:
 E= -154.091209459159    
 DIIS: error= 6.77D-10 at cycle   1 NSaved=   1.
 NSaved= 1 IEnMin= 1 EnMin= -154.091209459159     IErMin= 1 ErrMin= 6.77D-10
 ErrMax= 6.77D-10  0.00D+00 EMaxC= 1.00D-01 BMatC= 5.41D-17 BMatP= 5.41D-17
 IDIUse=1 WtCom= 1.00D+00 WtEn= 0.00D+00
 Coeff-Com:  0.100D+01
 Coeff:      0.100D+01
 Gap=     0.614 Goal=   None    Shift=    0.000
 RMSDP=1.81D-10 MaxDP=2.20D-09              OVMax= 5.47D-09

 SCF Done:  E(RHF) =  -154.091209459     A.U. after    1 cycles
            NFock=  1  Conv=0.18D-09     -V/T= 2.0016
 KE= 1.538408021524D+02 PE=-5.244572473334D+02 EE= 1.351803481487D+02
 Leave Link  502 at Tue Dec 14 23:09:13 2021, MaxMem=   536870912 cpu:               1.0 elap:               0.3
 (Enter /opt/gaussian/g16/sse4/g16/l801.exe)
 ExpMin= 1.22D-01 ExpMax= 1.17D+04 ExpMxC= 4.01D+02 IAcc=3 IRadAn=         5 AccDes= 0.00D+00
 HarFok:  IExCor=  205 AccDes= 0.00D+00 IRadAn=         5 IDoV=-2 UseB2=F ITyADJ=14
 ICtDFT= 12500011 ScaDFX=  1.000000  1.000000  1.000000  1.000000
 Largest valence mixing into a core orbital is  1.07D-04
 Largest core mixing into a valence orbital is  4.26D-05
 Range of M.O.s used for correlation:     4    72
 NBasis=    72 NAE=    13 NBE=    13 NFC=     3 NFV=     0
 NROrb=     69 NOA=    10 NOB=    10 NVA=    59 NVB=    59
 Leave Link  801 at Tue Dec 14 23:09:13 2021, MaxMem=   536870912 cpu:               0.5 elap:               0.1
 (Enter /opt/gaussian/g16/sse4/g16/l914.exe)
 RHF ground state
 Keep R1, R2, and R3 ints in memory in canonical form, NReq=11245795.
 FoFCou: FMM=F IPFlag=           0 FMFlag=           0 FMFlg1=           0
         NFxFlg=           0 DoJE=F BraDBF=F KetDBF=F FulRan=T
         wScrn=  0.000000 ICntrl=       600 IOpCl=  0 I1Cent=           0 NGrid=           0
         NMat0=    1 NMatS0=   2628 NMatT0=    0 NMatD0=    1 NMtDS0=    0 NMtDT0=    0
 Symmetry not used in FoFCou.
 Two-electron integral symmetry not used.
 MDV=   536870912 DFT=F DoStab=F Mixed=F DoRPA=F DoScal=F NonHer=F
 Making orbital integer symmetry assigments:
 Orbital symmetries:
       Occupied  (A) (A) (A) (A) (A) (A) (A) (A) (A) (A) (A) (A)
                 (A)
       Virtual   (A) (A) (A) (A) (A) (A) (A) (A) (A) (A) (A) (A)
                 (A) (A) (A) (A) (A) (A) (A) (A) (A) (A) (A) (A)
                 (A) (A) (A) (A) (A) (A) (A) (A) (A) (A) (A) (A)
                 (A) (A) (A) (A) (A) (A) (A) (A) (A) (A) (A) (A)
                 (A) (A) (A) (A) (A) (A) (A) (A) (A) (A) (A)
    40 initial guesses have been made.
 Convergence on wavefunction:    0.001000000000000
 Davidson Disk Diagonalization:  ConvIn= 1.00D-03 SkipCon=T Conv= 1.00D-03.
 Max sub-space:  2000 roots to seek:    40 dimension of matrix:         1180
 Iteration     1 Dimension    40 NMult     0 NNew     40
 CISAX will form    40 AO SS matrices at one time.
 NMat=    40 NSing=    40 JSym2X= 0.
 New state      4 was old state      7
 New state      5 was old state      4
 New state      6 was old state      5
 New state      7 was old state      6
 New state      9 was old state     10
 New state     10 was old state     11
 Excitation Energies [eV] at current iteration:
 Root      1 :     9.329803363249907
 Root      2 :    11.186305243979780
 Root      3 :    11.522362230264800
 Root      4 :    12.132418244979680
 Root      5 :    12.166096051603690
 Root      6 :    12.396926401266600
 Root      7 :    12.729112994881050
 Root      8 :    12.866219533802170
 Root      9 :    12.996794511917840
 Root     10 :    13.435822212711280
 Root     11 :    13.572090186912200
 Root     12 :    13.716248351170570
 Root     13 :    13.764585330678250
 Root     14 :    14.079052601985350
 Root     15 :    14.213212740403830
 Root     16 :    14.436133371189750
 Root     17 :    14.483163353630820
 Root     18 :    14.618226136613110
 Root     19 :    14.817557268675200
 Root     20 :    15.135319387934690
 Root     21 :    15.407379025425250
 Root     22 :    15.415933704536880
 Root     23 :    15.590708670120520
 Root     24 :    15.676616828630490
 Root     25 :    15.773719887305780
 Root     26 :    15.930846185879740
 Root     27 :    16.058670504193710
 Root     28 :    16.306545650311130
 Root     29 :    16.397460468808230
 Root     30 :    16.785555298660250
 Root     31 :    16.953790874834940
 Root     32 :    17.046752127553330
 Root     33 :    17.207415866388660
 Root     34 :    17.336117353700360
 Root     35 :    17.495466566547530
 Root     36 :    17.694137888927890
 Root     37 :    17.831680644621570
 Root     38 :    18.159412457790580
 Root     39 :    18.465552876791520
 Root     40 :    19.102063766558730
 Iteration     2 Dimension    80 NMult    40 NNew     40
 CISAX will form    40 AO SS matrices at one time.
 NMat=    40 NSing=    40 JSym2X= 0.
 Root      1 not converged, maximum delta is    0.033157113055675
 Root      2 not converged, maximum delta is    0.062106544903171
 Root      3 not converged, maximum delta is    0.113413831049207
 Root      4 not converged, maximum delta is    0.066235410959683
 Root      5 not converged, maximum delta is    0.056691314976740
 Root      6 not converged, maximum delta is    0.057288312713723
 Root      7 not converged, maximum delta is    0.078857658335843
 Root      8 not converged, maximum delta is    0.062888690067008
 Root      9 not converged, maximum delta is    0.085492200599709
 Root     10 not converged, maximum delta is    0.090208054508253
 Excitation Energies [eV] at current iteration:
 Root      1 :     9.107739342024091   Change is   -0.222064021225816
 Root      2 :    10.933249214461170   Change is   -0.253056029518604
 Root      3 :    11.301267617666600   Change is   -0.221094612598197
 Root      4 :    11.850580160156750   Change is   -0.281838084822932
 Root      5 :    11.935828908632170   Change is   -0.230267142971524
 Root      6 :    12.168584282585930   Change is   -0.228342118680672
 Root      7 :    12.443508915568060   Change is   -0.285604079312996
 Root      8 :    12.603526273662240   Change is   -0.262693260139927
 Root      9 :    12.727607358047710   Change is   -0.269187153870129
 Root     10 :    13.160556356217400   Change is   -0.275265856493873
 Root     11 :    13.323159897790600   Change is   -0.248930289121595
 Root     12 :    13.440390042925630   Change is   -0.275858308244942
 Root     13 :    13.482625587799030   Change is   -0.281959742879227
 Root     14 :    13.727958229156350   Change is   -0.351094372829000
 Root     15 :    13.901995407301840   Change is   -0.311217333101990
 Root     16 :    14.122297121407140   Change is   -0.313836249782614
 Root     17 :    14.217198805565750   Change is   -0.265964548065066
 Root     18 :    14.404403207304800   Change is   -0.213822929308310
 Root     19 :    14.487497148671980   Change is   -0.330060120003213
 Root     20 :    14.831743752736690   Change is   -0.303575635197999
 Root     21 :    15.081312281434950   Change is   -0.326066743990305
 Root     22 :    15.153651287567150   Change is   -0.262282416969734
 Root     23 :    15.287169921785980   Change is   -0.303538748334534
 Root     24 :    15.352746803501880   Change is   -0.323870025128608
 Root     25 :    15.473355876029850   Change is   -0.300364011275936
 Root     26 :    15.652309992718810   Change is   -0.278536193160933
 Root     27 :    15.755112617748220   Change is   -0.303557886445480
 Root     28 :    16.006402398132360   Change is   -0.300143252178772
 Root     29 :    16.121811061137320   Change is   -0.275649407670918
 Root     30 :    16.425447518311780   Change is   -0.360107780348471
 Root     31 :    16.495403540942070   Change is   -0.458387333892862
 Root     32 :    16.667516619380540   Change is   -0.379235508172796
 Root     33 :    16.846281748770470   Change is   -0.361134117618187
 Root     34 :    17.012276054994610   Change is   -0.483190511552920
 Root     35 :    17.147262187845510   Change is   -0.188855165854851
 Root     36 :    17.278786604999010   Change is   -0.415351283928882
 Root     37 :    17.463778829223160   Change is   -0.367901815398413
 Root     38 :    17.536797038914600   Change is   -0.622615418875980
 Root     39 :    17.639108558052140   Change is   -0.826444318739377
 Root     40 :    18.188533761726580   Change is   -0.913530004832147
 Iteration     3 Dimension    90 NMult    80 NNew     10
 CISAX will form    10 AO SS matrices at one time.
 NMat=    10 NSing=    10 JSym2X= 0.
 Root      1 not converged, maximum delta is    0.003921565350937
 Root      2 not converged, maximum delta is    0.007799247782048
 Root      3 not converged, maximum delta is    0.008564084898166
 Root      4 not converged, maximum delta is    0.005416819830121
 Root      5 not converged, maximum delta is    0.007021379969656
 Root      6 not converged, maximum delta is    0.005127630643928
 Root      7 not converged, maximum delta is    0.009758142362940
 Root      8 not converged, maximum delta is    0.007838595521674
 Root      9 not converged, maximum delta is    0.012515902744435
 Root     10 not converged, maximum delta is    0.011141191818890
 Excitation Energies [eV] at current iteration:
 Root      1 :     9.101513359456717   Change is   -0.006225982567374
 Root      2 :    10.923038414616910   Change is   -0.010210799844267
 Root      3 :    11.291169948027500   Change is   -0.010097669639103
 Root      4 :    11.840789541016150   Change is   -0.009790619140596
 Root      5 :    11.926930635022540   Change is   -0.008898273609629
 Root      6 :    12.162208189638870   Change is   -0.006376092947059
 Root      7 :    12.429362158459160   Change is   -0.014146757108897
 Root      8 :    12.592697565161100   Change is   -0.010828708501143
 Root      9 :    12.717854431557240   Change is   -0.009752926490462
 Root     10 :    13.144044939261190   Change is   -0.016511416956214
 Iteration     4 Dimension   100 NMult    90 NNew     10
 CISAX will form    10 AO SS matrices at one time.
 NMat=    10 NSing=    10 JSym2X= 0.
 Root      1 has converged.
 Root      2 has converged.
 Root      3 has converged.
 Root      4 has converged.
 Root      5 not converged, maximum delta is    0.001001901945847
 Root      6 not converged, maximum delta is    0.001456416257897
 Root      7 not converged, maximum delta is    0.001129175994799
 Root      8 has converged.
 Root      9 has converged.
 Root     10 not converged, maximum delta is    0.001556516294846
 Excitation Energies [eV] at current iteration:
 Root      1 :     9.101398745238583   Change is   -0.000114614218133
 Root      2 :    10.922853694366130   Change is   -0.000184720250779
 Root      3 :    11.290963614918140   Change is   -0.000206333109355
 Root      4 :    11.840604386494650   Change is   -0.000185154521502
 Root      5 :    11.926694256925250   Change is   -0.000236378097284
 Root      6 :    12.161912126090420   Change is   -0.000296063548444
 Root      7 :    12.429013009907010   Change is   -0.000349148552154
 Root      8 :    12.592414182933080   Change is   -0.000283382228018
 Root      9 :    12.717526513745170   Change is   -0.000327917812076
 Root     10 :    13.143412226328340   Change is   -0.000632712932853
 Iteration     5 Dimension   104 NMult   100 NNew      4
 CISAX will form     4 AO SS matrices at one time.
 NMat=     4 NSing=     4 JSym2X= 0.
 Root      1 has converged.
 Root      2 has converged.
 Root      3 has converged.
 Root      4 has converged.
 Root      5 has converged.
 Root      6 has converged.
 Root      7 has converged.
 Root      8 has converged.
 Root      9 has converged.
 Root     10 has converged.
 Excitation Energies [eV] at current iteration:
 Root      1 :     9.101398060578608   Change is   -0.000000684659976
 Root      2 :    10.922852903363080   Change is   -0.000000791003050
 Root      3 :    11.290962650336300   Change is   -0.000000964581845
 Root      4 :    11.840603826463220   Change is   -0.000000560031431
 Root      5 :    11.926690240768450   Change is   -0.000004016156806
 Root      6 :    12.161899835953820   Change is   -0.000012290136602
 Root      7 :    12.429004302529660   Change is   -0.000008707377347
 Root      8 :    12.592412537737530   Change is   -0.000001645195552
 Root      9 :    12.717522430762650   Change is   -0.000004082982522
 Root     10 :    13.143393732982740   Change is   -0.000018493345600
 Convergence achieved on expansion vectors.
 ***********************************************************************
 Excited states from <AA,BB:AA,BB> singles matrix:
 ***********************************************************************
 
 1PDM for each excited state written to RWF  633
 Ground to excited state transition densities written to RWF  633
 Ground to excited state transition electric dipole moments (Au):
       state          X           Y           Z        Dip. S.      Osc.
         1         0.1142      0.0187     -0.0161      0.0136      0.0030
         2        -0.0716     -0.2443     -0.1464      0.0862      0.0231
         3        -0.1462      0.1958      0.3067      0.1538      0.0425
         4        -0.1134     -0.0311     -0.0086      0.0139      0.0040
         5        -0.0294     -0.0280      0.0628      0.0056      0.0016
         6         0.5784      0.3062      0.9405      1.3128      0.3912
         7        -0.4449      0.7061      0.6154      1.0752      0.3274
         8         0.0357      0.9022     -0.6553      1.2447      0.3840
         9         0.4551      0.8177     -0.6582      1.3091      0.4079
        10         0.0900      0.5159      0.0823      0.2811      0.0905
 Ground to excited state transition velocity dipole moments (Au):
       state          X           Y           Z        Dip. S.      Osc.
         1        -0.0859     -0.0632     -0.0543      0.0143      0.0285
         2         0.0581      0.1002      0.0473      0.0157      0.0260
         3         0.0414     -0.0928     -0.1485      0.0324      0.0520
         4         0.0640      0.0197     -0.0028      0.0045      0.0069
         5        -0.0078     -0.0259     -0.0327      0.0018      0.0027
         6        -0.2186     -0.1198     -0.3627      0.1937      0.2889
         7         0.1814     -0.2899     -0.2487      0.1788      0.2610
         8        -0.0183     -0.3552      0.3035      0.2186      0.3149
         9        -0.1959     -0.3441      0.2385      0.2136      0.3048
        10        -0.0285     -0.2251     -0.0409      0.0532      0.0734
 Ground to excited state transition magnetic dipole moments (Au):
       state          X           Y           Z
         1         0.4493      0.2265     -0.6314
         2         0.9971     -0.0436      0.4705
         3        -0.0265      0.6771      0.3573
         4        -0.3869      1.1834      0.5822
         5         0.1960      0.0096     -0.4723
         6         0.0800     -0.5289     -0.2263
         7         0.0328     -0.8657      1.1416
         8         0.1091      0.2632      0.6261
         9         0.1718      0.4765      0.5522
        10        -0.1704     -0.3119     -0.1263
 Ground to excited state transition velocity quadrupole moments (Au):
       state          XX          YY          ZZ          XY          XZ          YZ
         1        -0.4580      0.3019     -0.0044     -0.1655     -0.2659      0.1986
         2         0.1798     -0.1648      0.1928      0.1190      0.1299      1.0381
         3         0.1318     -0.2106     -0.3349     -0.0005     -0.4187     -0.3089
         4         0.0042      0.3908      0.0809      0.3399     -0.7462     -0.6675
         5         0.0510     -0.2012     -0.0729     -0.2106      0.1336     -0.0296
         6         1.2722     -0.4724     -0.4248     -0.2818      0.2990     -0.2215
         7        -1.4087      0.4076      0.4948      0.9299      0.5903      0.0036
         8        -0.3448     -0.0680      0.0437      0.4709     -0.3936     -0.0657
         9         0.7673     -0.4004     -0.0126      0.3414     -0.3229      0.0536
        10         0.9523     -0.4105     -0.3909     -0.4607      0.1198      0.1226
 <0|del|b> * <b|rxdel|0> + <0|del|b> * <b|delr+rdel|0>
 Rotatory Strengths (R) in cgs (10**-40 erg-esu-cm/Gauss)
       state          XX          YY          ZZ    R(velocity)    E-M Angle
         1        12.7999    -32.0875    -20.1258    -13.1378      101.12
         2         9.2313    118.7952      5.5182     44.5149       56.69
         3      -131.8401    -57.0876    -10.4836    -66.4704      148.10
         4        28.7635    -55.3971     21.5864     -1.6824       91.93
         5        20.5926      5.8507     -4.4096      7.3446       50.98
         6       224.2531      8.5581    -30.3401     67.4904       59.96
         7       -72.1025    -35.6295     65.9105    -13.9405       92.55
         8        76.1375     35.3891     32.9551     48.1606       72.90
         9       -46.8364      4.6296    -57.5097    -33.2388      100.97
        10        88.6927     -9.0032     37.7572     39.1489       22.69
 1/2[<0|r|b>*<b|rxdel|0> + (<0|rxdel|b>*<b|r|0>)*]
 Rotatory Strengths (R) in cgs (10**-40 erg-esu-cm/Gauss)
       state          XX          YY          ZZ     R(length)
         1       -36.2789     -2.9926     -7.1667    -15.4794
         2        50.4833     -7.5337     48.7063     30.5520
         3        -2.7381    -93.7500    -77.4966    -57.9949
         4       -31.0268     26.0447      3.5494     -0.4776
         5         4.0743      0.1902     20.9872      8.4172
         6       -32.7252    114.5222    150.5276     77.4416
         7        10.3283    432.2302   -496.8093    -18.0836
         8        -2.7559   -167.8970    290.1611     39.8361
         9       -55.2958   -275.5501    257.0471    -24.5996
        10        10.8382    113.7872      7.3462     43.9905
  1/2[<0|del|b>*<b|r|0> + (<0|r|b>*<b|del|0>)*] (Au)
       state          X           Y           Z        Dip. S.   Osc.(frdel)
         1        -0.0098     -0.0012      0.0009      0.0101      0.0067
         2        -0.0042     -0.0245     -0.0069      0.0356      0.0237
         3        -0.0061     -0.0182     -0.0455      0.0698      0.0465
         4        -0.0073     -0.0006      0.0000      0.0078      0.0052
         5         0.0002      0.0007     -0.0021      0.0011      0.0007
         6        -0.1264     -0.0367     -0.3411      0.5042      0.3361
         7        -0.0807     -0.2047     -0.1531      0.4385      0.2923
         8        -0.0007     -0.3204     -0.1989      0.5199      0.3466
         9        -0.0892     -0.2813     -0.1570      0.5275      0.3517
        10        -0.0026     -0.1161     -0.0034      0.1221      0.0814

 Excitation energies and oscillator strengths:
 
 Excited State   1:      Singlet-A      9.1014 eV  136.23 nm  f=0.0030  <S**2>=0.000
      13 -> 14         0.52633
      13 -> 15         0.32935
      13 -> 16        -0.11330
      13 -> 17         0.19395
 This state for optimization and/or second-order correction.
 Total Energy, E(CIS/TDA) =  -153.756739235    
 Copying the excited state density for this state as the 1-particle RhoCI density.
 
 Excited State   2:      Singlet-A     10.9229 eV  113.51 nm  f=0.0231  <S**2>=0.000
      12 -> 14         0.54916
      12 -> 16        -0.14955
      13 -> 14         0.17488
      13 -> 15        -0.20462
      13 -> 16        -0.10360
 
 Excited State   3:      Singlet-A     11.2910 eV  109.81 nm  f=0.0425  <S**2>=0.000
      10 -> 14         0.22495
      11 -> 14         0.12382
      12 -> 14         0.22381
      12 -> 15         0.14380
      13 -> 14        -0.33594
      13 -> 15         0.38110
      13 -> 17         0.12652
      13 -> 18        -0.14890
 
 Excited State   4:      Singlet-A     11.8406 eV  104.71 nm  f=0.0040  <S**2>=0.000
      10 -> 14         0.17803
      11 -> 14         0.35470
      12 -> 14        -0.24613
      12 -> 15         0.37462
      12 -> 17         0.10573
      12 -> 18        -0.10594
      13 -> 14         0.10772
      13 -> 15        -0.20294
 
 Excited State   5:      Singlet-A     11.9267 eV  103.96 nm  f=0.0016  <S**2>=0.000
      13 -> 15        -0.20606
      13 -> 16        -0.25653
      13 -> 17         0.34001
      13 -> 18        -0.21802
      13 -> 20        -0.38261
      13 -> 21        -0.12835
 
 Excited State   6:      Singlet-A     12.1619 eV  101.94 nm  f=0.3912  <S**2>=0.000
      11 -> 14        -0.20811
      12 -> 15         0.10918
      13 -> 15        -0.16994
      13 -> 16         0.48691
      13 -> 17         0.28200
      13 -> 19         0.13029
 
 Excited State   7:      Singlet-A     12.4290 eV   99.75 nm  f=0.3274  <S**2>=0.000
      10 -> 14        -0.30574
      10 -> 15         0.10678
      10 -> 16        -0.13647
      11 -> 14         0.41765
      11 -> 15        -0.18259
      11 -> 16         0.11228
      12 -> 15        -0.10388
      12 -> 16         0.20486
      13 -> 16         0.15786
 
 Excited State   8:      Singlet-A     12.5924 eV   98.46 nm  f=0.3840  <S**2>=0.000
       8 -> 14         0.14045
      10 -> 14         0.23684
      11 -> 14         0.11937
      11 -> 16         0.12702
      12 -> 15        -0.30130
      12 -> 16        -0.30019
      13 -> 15        -0.10875
      13 -> 17         0.28564
      13 -> 18         0.13323
      13 -> 20         0.18276
      13 -> 21         0.11481
 
 Excited State   9:      Singlet-A     12.7175 eV   97.49 nm  f=0.4079  <S**2>=0.000
       9 -> 14        -0.17215
      12 -> 15        -0.17418
      12 -> 16        -0.30598
      12 -> 17         0.25865
      13 -> 16         0.23098
      13 -> 17        -0.18388
      13 -> 18        -0.14357
      13 -> 20        -0.26810
 
 Excited State  10:      Singlet-A     13.1434 eV   94.33 nm  f=0.0905  <S**2>=0.000
       8 -> 14        -0.12400
       9 -> 14         0.10997
      10 -> 14         0.10774
      11 -> 15         0.19038
      11 -> 16        -0.11738
      12 -> 15        -0.28229
      12 -> 16         0.25725
      12 -> 17         0.29789
      12 -> 18         0.10066
      13 -> 18        -0.20112
      13 -> 20         0.12798
 SavETr:  write IOETrn=   770 NScale= 10 NData=  16 NLR=1 NState=   10 LETran=     190.
 Leave Link  914 at Tue Dec 14 23:09:14 2021, MaxMem=   536870912 cpu:               2.5 elap:               0.6
 (Enter /opt/gaussian/g16/sse4/g16/l801.exe)
 Windowed orbitals will be sorted by symmetry type.
 Range of M.O.s used for correlation:     4    72
 NBasis=    72 NAE=    13 NBE=    13 NFC=     3 NFV=     0
 NROrb=     69 NOA=    10 NOB=    10 NVA=    59 NVB=    59
 MOs do not have abelian symmetry and doing EOM, so symmetry turned off.
 Leave Link  801 at Tue Dec 14 23:09:14 2021, MaxMem=   536870912 cpu:               0.1 elap:               0.0
 (Enter /opt/gaussian/g16/sse4/g16/l804.exe)
 Closed-shell transformation, MDV=   536870912 ITran=4 ISComp=1.
 Semi-Direct transformation.
 ModeAB=           2 MOrb=            10 LenV=     536585487
 LASXX=      1462170 LTotXX=     1462170 LenRXX=     1462170
 LTotAB=     1525225 MaxLAS=     1966500 LenRXY=     1966500
 NonZer=     2924340 LenScr=     5114368 LnRSAI=           0
 LnScr1=           0 LExtra=           0 Total=      8543038
 MaxDsk=          -1 SrtSym=           F ITran=            4
 DoSDTr:  NPSUse=  4
 JobTyp=0 Pass  1:  I=   1 to  10.
 (rs|ai) integrals will be sorted in core.
 Complete sort for first half transformation.
 First half transformation complete.
 Begin second half transformation for I=  10.
 Begin second half transformation for I=  10.
 Complete sort for second half transformation.
 Second half transformation complete.
 Spin components of T(2) and E(2):
     alpha-alpha T2 =       0.1746136452D-01 E2=     -0.5677984132D-01
     alpha-beta  T2 =       0.1120259660D+00 E2=     -0.3689658746D+00
     beta-beta   T2 =       0.1746136452D-01 E2=     -0.5677984132D-01
 ANorm=    0.1070956906D+01
 E2 =    -0.4825255572D+00 EUMP2 =    -0.15457373501636D+03
 Leave Link  804 at Tue Dec 14 23:09:15 2021, MaxMem=   536870912 cpu:               2.4 elap:               0.6
 (Enter /opt/gaussian/g16/sse4/g16/l913.exe)
 CIDS:  MDV=   536870912.
 Frozen-core window:  NFC=   3 NFV=   0.
 IFCWin=0 IBDFC=1 NFBD=     0     0 NFCmp=     0     0 NFFFC=     0     0
 Using DD3R+UMP44R for 1st iteration.
 Using DD4RQ for 2nd and later iterations.
 Keep R2 and R3 ints in memory in canonical form, NReq=7795229.
 FoFCou: FMM=F IPFlag=           0 FMFlag=           0 FMFlg1=           0
         NFxFlg=           0 DoJE=F BraDBF=F KetDBF=F FulRan=T
         wScrn=  0.000000 ICntrl=       600 IOpCl=  0 I1Cent=           0 NGrid=           0
         NMat0=    1 NMatS0=   2628 NMatT0=    0 NMatD0=    1 NMtDS0=    0 NMtDT0=    0
 Symmetry not used in FoFCou.
 Two-electron integral symmetry not used.
 CIDS: In Core Option IDoMem=           1.
 Coupled Cluster theory with single and double substitutions
 ===========================================================
 Iterations=  50 Convergence= 0.100D-07
 Produce multiple copies of IABC intergrals
 Iteration Nr.   1
 **********************
 DD1Dir will call FoFMem   1 times, MxPair=       110
 NAB=    55 NAA=     0 NBB=     0.
 MP4(R+Q)=  0.76035292D-02
 Maximum subspace dimension=  5
 A-vector RMS=  2.6914544D-03 Max=  7.7331677D-03 conv= 1.00D-06.
 RLE energy=       -0.5069918389
 E3=       -0.30976919D-01        EUMP3=      -0.15460471194D+03
 E4(DQ)=   -0.37552366D-02        UMP4(DQ)=   -0.15460846717D+03
 E4(SDQ)=  -0.65386727D-02        UMP4(SDQ)=  -0.15461125061D+03
 VARIATIONAL ENERGIES WITH THE FIRST-ORDER WAVEFUNCTION:
 DE(Corr)= -0.50581117     E(Corr)=     -154.59702063    
 NORM(A)=   0.10803084D+01
 Iteration Nr.   2
 **********************
 DD1Dir will call FoFMem   1 times, MxPair=       110
 NAB=    55 NAA=     0 NBB=     0.
 A-vector RMS=  4.0971123D-04 Max=  1.1740571D-03 conv= 1.00D-06.
 RLE energy=       -0.5196772212
 DE(Corr)= -0.51739110     E(CORR)=     -154.60860056     Delta=-1.16D-02
 NORM(A)=   0.10857388D+01
 Iteration Nr.   3
 **********************
 DD1Dir will call FoFMem   1 times, MxPair=       110
 NAB=    55 NAA=     0 NBB=     0.
 A-vector RMS=  3.6541818D-04 Max=  1.3319937D-03 conv= 1.00D-06.
 RLE energy=       -0.5203146329
 DE(Corr)= -0.51957041     E(CORR)=     -154.61077987     Delta=-2.18D-03
 NORM(A)=   0.10866113D+01
 Iteration Nr.   4
 **********************
 DD1Dir will call FoFMem   1 times, MxPair=       110
 NAB=    55 NAA=     0 NBB=     0.
 A-vector RMS=  6.7506033D-05 Max=  1.9465345D-04 conv= 1.00D-06.
 RLE energy=       -0.5204271069
 DE(Corr)= -0.52036376     E(CORR)=     -154.61157322     Delta=-7.93D-04
 NORM(A)=   0.10867864D+01
 Iteration Nr.   5
 **********************
 DD1Dir will call FoFMem   1 times, MxPair=       110
 NAB=    55 NAA=     0 NBB=     0.
 A-vector RMS=  3.4573069D-05 Max=  1.9266832D-04 conv= 1.00D-06.
 RLE energy=       -0.5204524268
 DE(Corr)= -0.52043904     E(CORR)=     -154.61164850     Delta=-7.53D-05
 NORM(A)=   0.10868204D+01
 Iteration Nr.   6
 **********************
 DD1Dir will call FoFMem   1 times, MxPair=       110
 NAB=    55 NAA=     0 NBB=     0.
 A-vector RMS=  8.6071804D-06 Max=  3.0661612D-05 conv= 1.00D-06.
 RLE energy=       -0.5204445648
 DE(Corr)= -0.52044745     E(CORR)=     -154.61165691     Delta=-8.40D-06
 NORM(A)=   0.10868212D+01
 Iteration Nr.   7
 **********************
 DD1Dir will call FoFMem   1 times, MxPair=       110
 NAB=    55 NAA=     0 NBB=     0.
 A-vector RMS=  4.0881878D-06 Max=  2.5552464D-05 conv= 1.00D-06.
 RLE energy=       -0.5204447907
 DE(Corr)= -0.52044741     E(CORR)=     -154.61165687     Delta= 3.19D-08
 NORM(A)=   0.10868220D+01
 Iteration Nr.   8
 **********************
 DD1Dir will call FoFMem   1 times, MxPair=       110
 NAB=    55 NAA=     0 NBB=     0.
 A-vector RMS=  1.5794553D-06 Max=  9.3772440D-06 conv= 1.00D-06.
 RLE energy=       -0.5204464235
 DE(Corr)= -0.52044665     E(CORR)=     -154.61165611     Delta= 7.65D-07
 NORM(A)=   0.10868231D+01
 Iteration Nr.   9
 **********************
 DD1Dir will call FoFMem   1 times, MxPair=       110
 NAB=    55 NAA=     0 NBB=     0.
 A-vector RMS=  4.9721285D-07 Max=  2.5716973D-06 conv= 1.00D-06.
 RLE energy=       -0.5204468210
 DE(Corr)= -0.52044687     E(CORR)=     -154.61165633     Delta=-2.21D-07
 NORM(A)=   0.10868236D+01
 Iteration Nr.  10
 **********************
 DD1Dir will call FoFMem   1 times, MxPair=       110
 NAB=    55 NAA=     0 NBB=     0.
 A-vector RMS=  2.0458013D-07 Max=  1.6776028D-06 conv= 1.00D-06.
 RLE energy=       -0.5204471024
 DE(Corr)= -0.52044703     E(CORR)=     -154.61165649     Delta=-1.64D-07
 NORM(A)=   0.10868239D+01
 Iteration Nr.  11
 **********************
 DD1Dir will call FoFMem   1 times, MxPair=       110
 NAB=    55 NAA=     0 NBB=     0.
 A-vector RMS=  6.5082603D-08 Max=  3.2469695D-07 conv= 1.00D-06.
 RLE energy=       -0.5204471687
 DE(Corr)= -0.52044714     E(CORR)=     -154.61165659     Delta=-1.02D-07
 NORM(A)=   0.10868239D+01
 Iteration Nr.  12
 **********************
 DD1Dir will call FoFMem   1 times, MxPair=       110
 NAB=    55 NAA=     0 NBB=     0.
 A-vector RMS=  2.6743154D-08 Max=  2.2418879D-07 conv= 1.00D-06.
 RLE energy=       -0.5204471995
 DE(Corr)= -0.52044719     E(CORR)=     -154.61165664     Delta=-4.97D-08
 NORM(A)=   0.10868240D+01
 Iteration Nr.  13
 **********************
 DD1Dir will call FoFMem   1 times, MxPair=       110
 NAB=    55 NAA=     0 NBB=     0.
 A-vector RMS=  1.0687842D-08 Max=  6.3160328D-08 conv= 1.00D-06.
 RLE energy=       -0.5204472045
 DE(Corr)= -0.52044720     E(CORR)=     -154.61165666     Delta=-1.42D-08
 NORM(A)=   0.10868240D+01
 Iteration Nr.  14
 **********************
 DD1Dir will call FoFMem   1 times, MxPair=       110
 NAB=    55 NAA=     0 NBB=     0.
 A-vector RMS=  5.0380776D-09 Max=  4.4016531D-08 conv= 1.00D-06.
 RLE energy=       -0.5204472060
 DE(Corr)= -0.52044720     E(CORR)=     -154.61165666     Delta=-5.21D-09
 NORM(A)=   0.10868240D+01
 CI/CC converged in   14 iterations to DelEn=-5.21D-09 Conv= 1.00D-08 ErrA1= 5.04D-09 Conv= 1.00D-06
 Wavefunction amplitudes converged. E(Corr)=     -154.61165666    
 Largest amplitude= 1.91D-02

 Z-amplitude iterations

 Iteration Nr.   1
 **********************
 DD1Dir will call FoFMem   1 times, MxPair=       110
 NAB=    55 NAA=     0 NBB=     0.
 A-vector RMS=  9.1788186D-04 Max=  2.9848210D-03 conv= 1.00D-06.
 RLE energy=       -0.5204123984
 DE(Z)= -0.50973674     E(Z)=     -154.60094620     Delta= 1.07D-02
 NORM(A)=   0.10868106D+01
 Iteration Nr.   2
 **********************
 DD1Dir will call FoFMem   1 times, MxPair=       110
 NAB=    55 NAA=     0 NBB=     0.
 A-vector RMS=  9.1499395D-04 Max=  2.9755601D-03 conv= 1.00D-06.
 RLE energy=       -0.5204322955
 DE(Z)= -0.50973189     E(Z)=     -154.60094135     Delta= 4.85D-06
 NORM(A)=   0.10868182D+01
 Iteration Nr.   3
 **********************
 DD1Dir will call FoFMem   1 times, MxPair=       110
 NAB=    55 NAA=     0 NBB=     0.
 A-vector RMS=  9.1684507D-04 Max=  2.9815435D-03 conv= 1.00D-06.
 RLE energy=       -0.5204368664
 DE(Z)= -0.50973486     E(Z)=     -154.60094432     Delta=-2.97D-06
 NORM(A)=   0.10868199D+01
 Iteration Nr.   4
 **********************
 DD1Dir will call FoFMem   1 times, MxPair=       110
 NAB=    55 NAA=     0 NBB=     0.
 A-vector RMS=  9.1711008D-04 Max=  2.9823267D-03 conv= 1.00D-06.
 RLE energy=       -0.5208950016
 DE(Z)= -0.50973540     E(Z)=     -154.60094486     Delta=-5.34D-07
 NORM(A)=   0.10870020D+01
 Iteration Nr.   5
 **********************
 DD1Dir will call FoFMem   1 times, MxPair=       110
 NAB=    55 NAA=     0 NBB=     0.
 A-vector RMS=  9.5136707D-04 Max=  3.0937489D-03 conv= 1.00D-06.
 RLE energy=       -0.5081482758
 DE(Z)= -0.50979481     E(Z)=     -154.60100427     Delta=-5.94D-05
 NORM(A)=   0.10821487D+01
 Iteration Nr.   6
 **********************
 DD1Dir will call FoFMem   1 times, MxPair=       110
 NAB=    55 NAA=     0 NBB=     0.
 A-vector RMS=  1.9015326D-06 Max=  8.1450502D-06 conv= 1.00D-06.
 RLE energy=       -0.5081475752
 DE(Z)= -0.50814765     E(Z)=     -154.59935711     Delta= 1.65D-03
 NORM(A)=   0.10821484D+01
 Iteration Nr.   7
 **********************
 DD1Dir will call FoFMem   1 times, MxPair=       110
 NAB=    55 NAA=     0 NBB=     0.
 A-vector RMS=  1.4676360D-06 Max=  9.9046700D-06 conv= 1.00D-06.
 RLE energy=       -0.5081476612
 DE(Z)= -0.50814774     E(Z)=     -154.59935720     Delta=-9.51D-08
 NORM(A)=   0.10821479D+01
 Iteration Nr.   8
 **********************
 DD1Dir will call FoFMem   1 times, MxPair=       110
 NAB=    55 NAA=     0 NBB=     0.
 A-vector RMS=  2.4535751D-07 Max=  1.6483038D-06 conv= 1.00D-06.
 RLE energy=       -0.5081477743
 DE(Z)= -0.50814781     E(Z)=     -154.59935727     Delta=-6.66D-08
 NORM(A)=   0.10821479D+01
 Iteration Nr.   9
 **********************
 DD1Dir will call FoFMem   1 times, MxPair=       110
 NAB=    55 NAA=     0 NBB=     0.
 A-vector RMS=  1.1033506D-07 Max=  4.8658809D-07 conv= 1.00D-06.
 RLE energy=       -0.5081477280
 DE(Z)= -0.50814773     E(Z)=     -154.59935719     Delta= 7.97D-08
 NORM(A)=   0.10821478D+01
 Iteration Nr.  10
 **********************
 DD1Dir will call FoFMem   1 times, MxPair=       110
 NAB=    55 NAA=     0 NBB=     0.
 A-vector RMS=  4.7681918D-08 Max=  3.6721651D-07 conv= 1.00D-06.
 RLE energy=       -0.5081477080
 DE(Z)= -0.50814773     E(Z)=     -154.59935719     Delta=-1.97D-09
 NORM(A)=   0.10821478D+01
 CI/CC converged in   10 iterations to DelEn=-1.97D-09 Conv= 1.00D-08 ErrA1= 4.77D-08 Conv= 1.00D-06
 Z-amplitudes converged.

 ======================================

                EOM-CCSD               

 ======================================

 Processing Closed Shell Singlets

 *****************************************************
 Starting Irrep 1
 Dimension of the space: 
 Singles AA=     590, Singles BB=     590, Doubles AA=      76995,
 Doubles AB=      348100, Doubles BB=      76995, Total=      348690
 EnOnly = F DoTwo = F, DoSame = F, DoRgt = T, DoLft = F, DoTrip = F,
 MSek =  10, InMSek =  10, MConv =  10, MaxMI =  200, Conv =  1.00D-06

 Right Eigenvector.

 Vector Nr.   1
 **********************
 DD1Dir will call FoFMem   1 times, MxPair=       110
 NAB=    55 NAA=     0 NBB=     0.
 Vector Nr.   2
 **********************
 DD1Dir will call FoFMem   1 times, MxPair=       110
 NAB=    55 NAA=     0 NBB=     0.
 Vector Nr.   3
 **********************
 DD1Dir will call FoFMem   1 times, MxPair=       110
 NAB=    55 NAA=     0 NBB=     0.
 Vector Nr.   4
 **********************
 DD1Dir will call FoFMem   1 times, MxPair=       110
 NAB=    55 NAA=     0 NBB=     0.
 Vector Nr.   5
 **********************
 DD1Dir will call FoFMem   1 times, MxPair=       110
 NAB=    55 NAA=     0 NBB=     0.
 Vector Nr.   6
 **********************
 DD1Dir will call FoFMem   1 times, MxPair=       110
 NAB=    55 NAA=     0 NBB=     0.
 Vector Nr.   7
 **********************
 DD1Dir will call FoFMem   1 times, MxPair=       110
 NAB=    55 NAA=     0 NBB=     0.
 Vector Nr.   8
 **********************
 DD1Dir will call FoFMem   1 times, MxPair=       110
 NAB=    55 NAA=     0 NBB=     0.
 Vector Nr.   9
 **********************
 DD1Dir will call FoFMem   1 times, MxPair=       110
 NAB=    55 NAA=     0 NBB=     0.
 Vector Nr.  10
 **********************
 DD1Dir will call FoFMem   1 times, MxPair=       110
 NAB=    55 NAA=     0 NBB=     0.
 Actual subspace dimension: NDim=  10, NOld=   0, NNew=  10
 Right eigenvalues (eV) at iteration    1
 Root  1 =   11.238401450151
 Root  2 =   12.824310008605
 Root  3 =   13.351197973470
 Root  4 =   13.764202205873
 Root  5 =   14.084132601850
 Root  6 =   14.133866531486
 Root  7 =   14.221730174145
 Root  8 =   14.447828631854
 Root  9 =   14.920095438701
 Root 10 =   15.128464209808
 Norms of the Right Residuals
 Root I=  1 Norm= 5.95D-01 Max= 4.39D-02
 Root I=  2 Norm= 4.97D-01 Max= 2.00D-02
 Root I=  3 Norm= 5.57D-01 Max= 2.44D-02
 Root I=  4 Norm= 5.07D-01 Max= 1.97D-02
 Root I=  5 Norm= 5.18D-01 Max= 3.25D-02
 Root I=  6 Norm= 5.21D-01 Max= 1.94D-02
 Root I=  7 Norm= 5.33D-01 Max= 1.98D-02
 Root I=  8 Norm= 4.95D-01 Max= 2.14D-02
 Root I=  9 Norm= 5.79D-01 Max= 2.24D-02
 Root I= 10 Norm= 5.35D-01 Max= 1.67D-02
 New vectors created:  10

 Right Eigenvector.

 Vector Nr.  11
 **********************
 DD1Dir will call FoFMem   1 times, MxPair=       110
 NAB=    55 NAA=     0 NBB=     0.
 Vector Nr.  12
 **********************
 DD1Dir will call FoFMem   1 times, MxPair=       110
 NAB=    55 NAA=     0 NBB=     0.
 Vector Nr.  13
 **********************
 DD1Dir will call FoFMem   1 times, MxPair=       110
 NAB=    55 NAA=     0 NBB=     0.
 Vector Nr.  14
 **********************
 DD1Dir will call FoFMem   1 times, MxPair=       110
 NAB=    55 NAA=     0 NBB=     0.
 Vector Nr.  15
 **********************
 DD1Dir will call FoFMem   1 times, MxPair=       110
 NAB=    55 NAA=     0 NBB=     0.
 Vector Nr.  16
 **********************
 DD1Dir will call FoFMem   1 times, MxPair=       110
 NAB=    55 NAA=     0 NBB=     0.
 Vector Nr.  17
 **********************
 DD1Dir will call FoFMem   1 times, MxPair=       110
 NAB=    55 NAA=     0 NBB=     0.
 Vector Nr.  18
 **********************
 DD1Dir will call FoFMem   1 times, MxPair=       110
 NAB=    55 NAA=     0 NBB=     0.
 Vector Nr.  19
 **********************
 DD1Dir will call FoFMem   1 times, MxPair=       110
 NAB=    55 NAA=     0 NBB=     0.
 Vector Nr.  20
 **********************
 DD1Dir will call FoFMem   1 times, MxPair=       110
 NAB=    55 NAA=     0 NBB=     0.
 Actual subspace dimension: NDim=  20, NOld=  10, NNew=  10
 Right eigenvalues (eV) at iteration    2
 Root  1 =    7.950362968988
 Root  2 =    9.912181964956
 Root  3 =   10.069004157453
 Root  4 =   10.721071597893
 Root  5 =   10.959995879187
 Root  6 =   11.157725404863
 Root  7 =   11.649361057135
 Root  8 =   11.881618069835
 Root  9 =   12.068730757766
 Root 10 =   12.339772331450
 Norms of the Right Residuals
 Root I=  1 Norm= 9.71D-02 Max= 1.06D-02
 Root I=  2 Norm= 1.07D-01 Max= 1.78D-02
 Root I=  3 Norm= 1.03D-01 Max= 1.14D-02
 Root I=  4 Norm= 1.11D-01 Max= 1.58D-02
 Root I=  5 Norm= 1.08D-01 Max= 2.18D-02
 Root I=  6 Norm= 9.36D-02 Max= 1.09D-02
 Root I=  7 Norm= 1.09D-01 Max= 9.55D-03
 Root I=  8 Norm= 9.33D-02 Max= 1.37D-02
 Root I=  9 Norm= 9.29D-02 Max= 9.11D-03
 Root I= 10 Norm= 1.02D-01 Max= 1.16D-02
 New vectors created:  10

 Right Eigenvector.

 Vector Nr.  21
 **********************
 DD1Dir will call FoFMem   1 times, MxPair=       110
 NAB=    55 NAA=     0 NBB=     0.
 Vector Nr.  22
 **********************
 DD1Dir will call FoFMem   1 times, MxPair=       110
 NAB=    55 NAA=     0 NBB=     0.
 Vector Nr.  23
 **********************
 DD1Dir will call FoFMem   1 times, MxPair=       110
 NAB=    55 NAA=     0 NBB=     0.
 Vector Nr.  24
 **********************
 DD1Dir will call FoFMem   1 times, MxPair=       110
 NAB=    55 NAA=     0 NBB=     0.
 Vector Nr.  25
 **********************
 DD1Dir will call FoFMem   1 times, MxPair=       110
 NAB=    55 NAA=     0 NBB=     0.
 Vector Nr.  26
 **********************
 DD1Dir will call FoFMem   1 times, MxPair=       110
 NAB=    55 NAA=     0 NBB=     0.
 Vector Nr.  27
 **********************
 DD1Dir will call FoFMem   1 times, MxPair=       110
 NAB=    55 NAA=     0 NBB=     0.
 Vector Nr.  28
 **********************
 DD1Dir will call FoFMem   1 times, MxPair=       110
 NAB=    55 NAA=     0 NBB=     0.
 Vector Nr.  29
 **********************
 DD1Dir will call FoFMem   1 times, MxPair=       110
 NAB=    55 NAA=     0 NBB=     0.
 Vector Nr.  30
 **********************
 DD1Dir will call FoFMem   1 times, MxPair=       110
 NAB=    55 NAA=     0 NBB=     0.
 Actual subspace dimension: NDim=  30, NOld=  20, NNew=  10
 Right eigenvalues (eV) at iteration    3
 Root  1 =    7.892214628910
 Root  2 =    9.756001349150
 Root  3 =    9.990756039216
 Root  4 =   10.567614885000
 Root  5 =   10.772959441048
 Root  6 =   11.085591857555
 Root  7 =   11.539576760695
 Root  8 =   11.799324274306
 Root  9 =   11.977533309999
 Root 10 =   12.234654996734
 Norms of the Right Residuals
 Root I=  1 Norm= 4.03D-02 Max= 2.73D-03
 Root I=  2 Norm= 6.17D-02 Max= 3.58D-03
 Root I=  3 Norm= 4.49D-02 Max= 2.09D-03
 Root I=  4 Norm= 6.64D-02 Max= 2.61D-03
 Root I=  5 Norm= 7.41D-02 Max= 3.69D-03
 Root I=  6 Norm= 4.58D-02 Max= 1.79D-03
 Root I=  7 Norm= 5.58D-02 Max= 3.84D-03
 Root I=  8 Norm= 5.44D-02 Max= 3.35D-03
 Root I=  9 Norm= 5.87D-02 Max= 2.64D-03
 Root I= 10 Norm= 5.90D-02 Max= 2.96D-03
 New vectors created:  10

 Right Eigenvector.

 Vector Nr.  31
 **********************
 DD1Dir will call FoFMem   1 times, MxPair=       110
 NAB=    55 NAA=     0 NBB=     0.
 Vector Nr.  32
 **********************
 DD1Dir will call FoFMem   1 times, MxPair=       110
 NAB=    55 NAA=     0 NBB=     0.
 Vector Nr.  33
 **********************
 DD1Dir will call FoFMem   1 times, MxPair=       110
 NAB=    55 NAA=     0 NBB=     0.
 Vector Nr.  34
 **********************
 DD1Dir will call FoFMem   1 times, MxPair=       110
 NAB=    55 NAA=     0 NBB=     0.
 Vector Nr.  35
 **********************
 DD1Dir will call FoFMem   1 times, MxPair=       110
 NAB=    55 NAA=     0 NBB=     0.
 Vector Nr.  36
 **********************
 DD1Dir will call FoFMem   1 times, MxPair=       110
 NAB=    55 NAA=     0 NBB=     0.
 Vector Nr.  37
 **********************
 DD1Dir will call FoFMem   1 times, MxPair=       110
 NAB=    55 NAA=     0 NBB=     0.
 Vector Nr.  38
 **********************
 DD1Dir will call FoFMem   1 times, MxPair=       110
 NAB=    55 NAA=     0 NBB=     0.
 Vector Nr.  39
 **********************
 DD1Dir will call FoFMem   1 times, MxPair=       110
 NAB=    55 NAA=     0 NBB=     0.
 Vector Nr.  40
 **********************
 DD1Dir will call FoFMem   1 times, MxPair=       110
 NAB=    55 NAA=     0 NBB=     0.
 Actual subspace dimension: NDim=  40, NOld=  30, NNew=  10
 Right eigenvalues (eV) at iteration    4
 Root  1 =    7.888421169148
 Root  2 =    9.708588112587
 Root  3 =    9.984896230673
 Root  4 =   10.518041437367
 Root  5 =   10.672183885918
 Root  6 =   11.063493414399
 Root  7 =   11.512513490856
 Root  8 =   11.746454889996
 Root  9 =   11.910986993040
 Root 10 =   12.194168163429
 Norms of the Right Residuals
 Root I=  1 Norm= 1.74D-02 Max= 1.86D-03
 Root I=  2 Norm= 3.93D-02 Max= 3.53D-03
 Root I=  3 Norm= 2.07D-02 Max= 1.67D-03
 Root I=  4 Norm= 3.99D-02 Max= 4.12D-03
 Root I=  5 Norm= 5.15D-02 Max= 5.03D-03
 Root I=  6 Norm= 2.67D-02 Max= 2.58D-03
 Root I=  7 Norm= 3.63D-02 Max= 5.22D-03
 Root I=  8 Norm= 4.21D-02 Max= 3.75D-03
 Root I=  9 Norm= 4.57D-02 Max= 4.23D-03
 Root I= 10 Norm= 4.07D-02 Max= 5.83D-03
 New vectors created:  10

 Right Eigenvector.

 Vector Nr.  41
 **********************
 DD1Dir will call FoFMem   1 times, MxPair=       110
 NAB=    55 NAA=     0 NBB=     0.
 Vector Nr.  42
 **********************
 DD1Dir will call FoFMem   1 times, MxPair=       110
 NAB=    55 NAA=     0 NBB=     0.
 Vector Nr.  43
 **********************
 DD1Dir will call FoFMem   1 times, MxPair=       110
 NAB=    55 NAA=     0 NBB=     0.
 Vector Nr.  44
 **********************
 DD1Dir will call FoFMem   1 times, MxPair=       110
 NAB=    55 NAA=     0 NBB=     0.
 Vector Nr.  45
 **********************
 DD1Dir will call FoFMem   1 times, MxPair=       110
 NAB=    55 NAA=     0 NBB=     0.
 Vector Nr.  46
 **********************
 DD1Dir will call FoFMem   1 times, MxPair=       110
 NAB=    55 NAA=     0 NBB=     0.
 Vector Nr.  47
 **********************
 DD1Dir will call FoFMem   1 times, MxPair=       110
 NAB=    55 NAA=     0 NBB=     0.
 Vector Nr.  48
 **********************
 DD1Dir will call FoFMem   1 times, MxPair=       110
 NAB=    55 NAA=     0 NBB=     0.
 Vector Nr.  49
 **********************
 DD1Dir will call FoFMem   1 times, MxPair=       110
 NAB=    55 NAA=     0 NBB=     0.
 Vector Nr.  50
 **********************
 DD1Dir will call FoFMem   1 times, MxPair=       110
 NAB=    55 NAA=     0 NBB=     0.
 Actual subspace dimension: NDim=  50, NOld=  40, NNew=  10
 Right eigenvalues (eV) at iteration    5
 Root  1 =    7.881471545355
 Root  2 =    9.667246592221
 Root  3 =    9.972967851742
 Root  4 =   10.463035524935
 Root  5 =   10.598815013189
 Root  6 =   11.041019039873
 Root  7 =   11.468682967288
 Root  8 =   11.692077836764
 Root  9 =   11.834487992228
 Root 10 =   12.125803515078
 Norms of the Right Residuals
 Root I=  1 Norm= 7.98D-03 Max= 5.60D-04
 Root I=  2 Norm= 2.05D-02 Max= 1.59D-03
 Root I=  3 Norm= 1.08D-02 Max= 5.81D-04
 Root I=  4 Norm= 2.50D-02 Max= 1.29D-03
 Root I=  5 Norm= 2.46D-02 Max= 1.29D-03
 Root I=  6 Norm= 1.58D-02 Max= 1.24D-03
 Root I=  7 Norm= 3.41D-02 Max= 2.51D-03
 Root I=  8 Norm= 2.74D-02 Max= 2.15D-03
 Root I=  9 Norm= 3.39D-02 Max= 1.89D-03
 Root I= 10 Norm= 4.44D-02 Max= 2.85D-03
 New vectors created:  10

 Right Eigenvector.

 Vector Nr.  51
 **********************
 DD1Dir will call FoFMem   1 times, MxPair=       110
 NAB=    55 NAA=     0 NBB=     0.
 Vector Nr.  52
 **********************
 DD1Dir will call FoFMem   1 times, MxPair=       110
 NAB=    55 NAA=     0 NBB=     0.
 Vector Nr.  53
 **********************
 DD1Dir will call FoFMem   1 times, MxPair=       110
 NAB=    55 NAA=     0 NBB=     0.
 Vector Nr.  54
 **********************
 DD1Dir will call FoFMem   1 times, MxPair=       110
 NAB=    55 NAA=     0 NBB=     0.
 Vector Nr.  55
 **********************
 DD1Dir will call FoFMem   1 times, MxPair=       110
 NAB=    55 NAA=     0 NBB=     0.
 Vector Nr.  56
 **********************
 DD1Dir will call FoFMem   1 times, MxPair=       110
 NAB=    55 NAA=     0 NBB=     0.
 Vector Nr.  57
 **********************
 DD1Dir will call FoFMem   1 times, MxPair=       110
 NAB=    55 NAA=     0 NBB=     0.
 Vector Nr.  58
 **********************
 DD1Dir will call FoFMem   1 times, MxPair=       110
 NAB=    55 NAA=     0 NBB=     0.
 Vector Nr.  59
 **********************
 DD1Dir will call FoFMem   1 times, MxPair=       110
 NAB=    55 NAA=     0 NBB=     0.
 Vector Nr.  60
 **********************
 DD1Dir will call FoFMem   1 times, MxPair=       110
 NAB=    55 NAA=     0 NBB=     0.
 Actual subspace dimension: NDim=  60, NOld=  50, NNew=  10
 Right eigenvalues (eV) at iteration    6
 Root  1 =    7.878595245140
 Root  2 =    9.649743154198
 Root  3 =    9.966406121562
 Root  4 =   10.440399278940
 Root  5 =   10.575755090119
 Root  6 =   11.030192876926
 Root  7 =   11.424016085998
 Root  8 =   11.660637264932
 Root  9 =   11.795864371017
 Root 10 =   12.054536084102
 Norms of the Right Residuals
 Root I=  1 Norm= 3.53D-03 Max= 2.12D-04
 Root I=  2 Norm= 9.71D-03 Max= 6.42D-04
 Root I=  3 Norm= 5.00D-03 Max= 4.15D-04
 Root I=  4 Norm= 1.22D-02 Max= 9.72D-04
 Root I=  5 Norm= 1.21D-02 Max= 7.32D-04
 Root I=  6 Norm= 8.51D-03 Max= 7.01D-04
 Root I=  7 Norm= 2.71D-02 Max= 2.66D-03
 Root I=  8 Norm= 1.97D-02 Max= 1.19D-03
 Root I=  9 Norm= 2.22D-02 Max= 1.57D-03
 Root I= 10 Norm= 3.63D-02 Max= 3.61D-03
 New vectors created:  10

 Right Eigenvector.

 Vector Nr.  61
 **********************
 DD1Dir will call FoFMem   1 times, MxPair=       110
 NAB=    55 NAA=     0 NBB=     0.
 Vector Nr.  62
 **********************
 DD1Dir will call FoFMem   1 times, MxPair=       110
 NAB=    55 NAA=     0 NBB=     0.
 Vector Nr.  63
 **********************
 DD1Dir will call FoFMem   1 times, MxPair=       110
 NAB=    55 NAA=     0 NBB=     0.
 Vector Nr.  64
 **********************
 DD1Dir will call FoFMem   1 times, MxPair=       110
 NAB=    55 NAA=     0 NBB=     0.
 Vector Nr.  65
 **********************
 DD1Dir will call FoFMem   1 times, MxPair=       110
 NAB=    55 NAA=     0 NBB=     0.
 Vector Nr.  66
 **********************
 DD1Dir will call FoFMem   1 times, MxPair=       110
 NAB=    55 NAA=     0 NBB=     0.
 Vector Nr.  67
 **********************
 DD1Dir will call FoFMem   1 times, MxPair=       110
 NAB=    55 NAA=     0 NBB=     0.
 Vector Nr.  68
 **********************
 DD1Dir will call FoFMem   1 times, MxPair=       110
 NAB=    55 NAA=     0 NBB=     0.
 Vector Nr.  69
 **********************
 DD1Dir will call FoFMem   1 times, MxPair=       110
 NAB=    55 NAA=     0 NBB=     0.
 Vector Nr.  70
 **********************
 DD1Dir will call FoFMem   1 times, MxPair=       110
 NAB=    55 NAA=     0 NBB=     0.
 Actual subspace dimension: NDim=  70, NOld=  60, NNew=  10
 Right eigenvalues (eV) at iteration    7
 Root  1 =    7.877909221577
 Root  2 =    9.646562076215
 Root  3 =    9.965429207272
 Root  4 =   10.435864416809
 Root  5 =   10.571361219145
 Root  6 =   11.028056229348
 Root  7 =   11.396673148420
 Root  8 =   11.649988210582
 Root  9 =   11.783022261199
 Root 10 =   12.012155973887
 Norms of the Right Residuals
 Root I=  1 Norm= 1.37D-03 Max= 1.07D-04
 Root I=  2 Norm= 3.96D-03 Max= 2.55D-04
 Root I=  3 Norm= 2.26D-03 Max= 1.21D-04
 Root I=  4 Norm= 5.82D-03 Max= 5.40D-04
 Root I=  5 Norm= 5.46D-03 Max= 4.28D-04
 Root I=  6 Norm= 4.43D-03 Max= 3.31D-04
 Root I=  7 Norm= 2.21D-02 Max= 1.60D-03
 Root I=  8 Norm= 1.29D-02 Max= 8.49D-04
 Root I=  9 Norm= 1.62D-02 Max= 1.03D-03
 Root I= 10 Norm= 3.26D-02 Max= 2.29D-03
 New vectors created:  10

 Right Eigenvector.

 Vector Nr.  71
 **********************
 DD1Dir will call FoFMem   1 times, MxPair=       110
 NAB=    55 NAA=     0 NBB=     0.
 Vector Nr.  72
 **********************
 DD1Dir will call FoFMem   1 times, MxPair=       110
 NAB=    55 NAA=     0 NBB=     0.
 Vector Nr.  73
 **********************
 DD1Dir will call FoFMem   1 times, MxPair=       110
 NAB=    55 NAA=     0 NBB=     0.
 Vector Nr.  74
 **********************
 DD1Dir will call FoFMem   1 times, MxPair=       110
 NAB=    55 NAA=     0 NBB=     0.
 Vector Nr.  75
 **********************
 DD1Dir will call FoFMem   1 times, MxPair=       110
 NAB=    55 NAA=     0 NBB=     0.
 Vector Nr.  76
 **********************
 DD1Dir will call FoFMem   1 times, MxPair=       110
 NAB=    55 NAA=     0 NBB=     0.
 Vector Nr.  77
 **********************
 DD1Dir will call FoFMem   1 times, MxPair=       110
 NAB=    55 NAA=     0 NBB=     0.
 Vector Nr.  78
 **********************
 DD1Dir will call FoFMem   1 times, MxPair=       110
 NAB=    55 NAA=     0 NBB=     0.
 Vector Nr.  79
 **********************
 DD1Dir will call FoFMem   1 times, MxPair=       110
 NAB=    55 NAA=     0 NBB=     0.
 Vector Nr.  80
 **********************
 DD1Dir will call FoFMem   1 times, MxPair=       110
 NAB=    55 NAA=     0 NBB=     0.
 Actual subspace dimension: NDim=  80, NOld=  70, NNew=  10
 Right eigenvalues (eV) at iteration    8
 Root  1 =    7.877856694376
 Root  2 =    9.646729204396
 Root  3 =    9.965412811002
 Root  4 =   10.435141012056
 Root  5 =   10.571497472707
 Root  6 =   11.028465027978
 Root  7 =   11.387319468984
 Root  8 =   11.648200483919
 Root  9 =   11.779387122414
 Root 10 =   11.978409503209
 Norms of the Right Residuals
 Root I=  1 Norm= 6.00D-04 Max= 3.37D-05
 Root I=  2 Norm= 1.95D-03 Max= 1.36D-04
 Root I=  3 Norm= 1.03D-03 Max= 6.76D-05
 Root I=  4 Norm= 3.84D-03 Max= 3.11D-04
 Root I=  5 Norm= 3.17D-03 Max= 2.65D-04
 Root I=  6 Norm= 2.90D-03 Max= 1.94D-04
 Root I=  7 Norm= 1.71D-02 Max= 1.48D-03
 Root I=  8 Norm= 9.72D-03 Max= 6.66D-04
 Root I=  9 Norm= 1.23D-02 Max= 7.62D-04
 Root I= 10 Norm= 3.05D-02 Max= 2.50D-03
 New vectors created:  10

 Right Eigenvector.

 Vector Nr.  81
 **********************
 DD1Dir will call FoFMem   1 times, MxPair=       110
 NAB=    55 NAA=     0 NBB=     0.
 Vector Nr.  82
 **********************
 DD1Dir will call FoFMem   1 times, MxPair=       110
 NAB=    55 NAA=     0 NBB=     0.
 Vector Nr.  83
 **********************
 DD1Dir will call FoFMem   1 times, MxPair=       110
 NAB=    55 NAA=     0 NBB=     0.
 Vector Nr.  84
 **********************
 DD1Dir will call FoFMem   1 times, MxPair=       110
 NAB=    55 NAA=     0 NBB=     0.
 Vector Nr.  85
 **********************
 DD1Dir will call FoFMem   1 times, MxPair=       110
 NAB=    55 NAA=     0 NBB=     0.
 Vector Nr.  86
 **********************
 DD1Dir will call FoFMem   1 times, MxPair=       110
 NAB=    55 NAA=     0 NBB=     0.
 Vector Nr.  87
 **********************
 DD1Dir will call FoFMem   1 times, MxPair=       110
 NAB=    55 NAA=     0 NBB=     0.
 Vector Nr.  88
 **********************
 DD1Dir will call FoFMem   1 times, MxPair=       110
 NAB=    55 NAA=     0 NBB=     0.
 Vector Nr.  89
 **********************
 DD1Dir will call FoFMem   1 times, MxPair=       110
 NAB=    55 NAA=     0 NBB=     0.
 Vector Nr.  90
 **********************
 DD1Dir will call FoFMem   1 times, MxPair=       110
 NAB=    55 NAA=     0 NBB=     0.
 Actual subspace dimension: NDim=  90, NOld=  80, NNew=  10
 Right eigenvalues (eV) at iteration    9
 Root  1 =    7.877854250449
 Root  2 =    9.646686810311
 Root  3 =    9.965389951000
 Root  4 =   10.435002360930
 Root  5 =   10.571579736764
 Root  6 =   11.028547795136
 Root  7 =   11.382971193526
 Root  8 =   11.647039188767
 Root  9 =   11.776932865778
 Root 10 =   11.957005042590
 Norms of the Right Residuals
 Root I=  1 Norm= 2.51D-04 Max= 1.19D-05
 Root I=  2 Norm= 9.44D-04 Max= 5.05D-05
 Root I=  3 Norm= 4.97D-04 Max= 2.87D-05
 Root I=  4 Norm= 2.34D-03 Max= 1.54D-04
 Root I=  5 Norm= 1.77D-03 Max= 1.46D-04
 Root I=  6 Norm= 1.69D-03 Max= 2.23D-04
 Root I=  7 Norm= 1.06D-02 Max= 9.22D-04
 Root I=  8 Norm= 7.07D-03 Max= 5.02D-04
 Root I=  9 Norm= 8.21D-03 Max= 5.83D-04
 Root I= 10 Norm= 2.30D-02 Max= 1.88D-03
 New vectors created:  10

 Right Eigenvector.

 Vector Nr.  91
 **********************
 DD1Dir will call FoFMem   1 times, MxPair=       110
 NAB=    55 NAA=     0 NBB=     0.
 Vector Nr.  92
 **********************
 DD1Dir will call FoFMem   1 times, MxPair=       110
 NAB=    55 NAA=     0 NBB=     0.
 Vector Nr.  93
 **********************
 DD1Dir will call FoFMem   1 times, MxPair=       110
 NAB=    55 NAA=     0 NBB=     0.
 Vector Nr.  94
 **********************
 DD1Dir will call FoFMem   1 times, MxPair=       110
 NAB=    55 NAA=     0 NBB=     0.
 Vector Nr.  95
 **********************
 DD1Dir will call FoFMem   1 times, MxPair=       110
 NAB=    55 NAA=     0 NBB=     0.
 Vector Nr.  96
 **********************
 DD1Dir will call FoFMem   1 times, MxPair=       110
 NAB=    55 NAA=     0 NBB=     0.
 Vector Nr.  97
 **********************
 DD1Dir will call FoFMem   1 times, MxPair=       110
 NAB=    55 NAA=     0 NBB=     0.
 Vector Nr.  98
 **********************
 DD1Dir will call FoFMem   1 times, MxPair=       110
 NAB=    55 NAA=     0 NBB=     0.
 Vector Nr.  99
 **********************
 DD1Dir will call FoFMem   1 times, MxPair=       110
 NAB=    55 NAA=     0 NBB=     0.
 Vector Nr. 100
 **********************
 DD1Dir will call FoFMem   1 times, MxPair=       110
 NAB=    55 NAA=     0 NBB=     0.
 Actual subspace dimension: NDim= 100, NOld=  90, NNew=  10
 Right eigenvalues (eV) at iteration   10
 Root  1 =    7.877843403344
 Root  2 =    9.646711510767
 Root  3 =    9.965385530780
 Root  4 =   10.435256250209
 Root  5 =   10.571509476420
 Root  6 =   11.028479465555
 Root  7 =   11.380724929591
 Root  8 =   11.645949983815
 Root  9 =   11.775425585576
 Root 10 =   11.942634569395
 Norms of the Right Residuals
 Root I=  1 Norm= 9.47D-05 Max= 6.00D-06
 Root I=  2 Norm= 4.51D-04 Max= 3.37D-05
 Root I=  3 Norm= 2.31D-04 Max= 1.34D-05
 Root I=  4 Norm= 1.21D-03 Max= 8.47D-05
 Root I=  5 Norm= 1.05D-03 Max= 4.48D-05
 Root I=  6 Norm= 1.35D-03 Max= 9.15D-05
 Root I=  7 Norm= 6.53D-03 Max= 5.27D-04
 Root I=  8 Norm= 5.05D-03 Max= 2.40D-04
 Root I=  9 Norm= 5.81D-03 Max= 4.42D-04
 Root I= 10 Norm= 1.82D-02 Max= 1.33D-03
 New vectors created:  10

 Right Eigenvector.

 Vector Nr. 101
 **********************
 DD1Dir will call FoFMem   1 times, MxPair=       110
 NAB=    55 NAA=     0 NBB=     0.
 Vector Nr. 102
 **********************
 DD1Dir will call FoFMem   1 times, MxPair=       110
 NAB=    55 NAA=     0 NBB=     0.
 Vector Nr. 103
 **********************
 DD1Dir will call FoFMem   1 times, MxPair=       110
 NAB=    55 NAA=     0 NBB=     0.
 Vector Nr. 104
 **********************
 DD1Dir will call FoFMem   1 times, MxPair=       110
 NAB=    55 NAA=     0 NBB=     0.
 Vector Nr. 105
 **********************
 DD1Dir will call FoFMem   1 times, MxPair=       110
 NAB=    55 NAA=     0 NBB=     0.
 Vector Nr. 106
 **********************
 DD1Dir will call FoFMem   1 times, MxPair=       110
 NAB=    55 NAA=     0 NBB=     0.
 Vector Nr. 107
 **********************
 DD1Dir will call FoFMem   1 times, MxPair=       110
 NAB=    55 NAA=     0 NBB=     0.
 Vector Nr. 108
 **********************
 DD1Dir will call FoFMem   1 times, MxPair=       110
 NAB=    55 NAA=     0 NBB=     0.
 Vector Nr. 109
 **********************
 DD1Dir will call FoFMem   1 times, MxPair=       110
 NAB=    55 NAA=     0 NBB=     0.
 Vector Nr. 110
 **********************
 DD1Dir will call FoFMem   1 times, MxPair=       110
 NAB=    55 NAA=     0 NBB=     0.
 Actual subspace dimension: NDim= 110, NOld= 100, NNew=  10
 Right eigenvalues (eV) at iteration   11
 Root  1 =    7.877856828527
 Root  2 =    9.646747006939
 Root  3 =    9.965410748092
 Root  4 =   10.435431549745
 Root  5 =   10.571497438262
 Root  6 =   11.028538724574
 Root  7 =   11.380167068502
 Root  8 =   11.645630792185
 Root  9 =   11.774518794888
 Root 10 =   11.929730033718
 Norms of the Right Residuals
 Root I=  1 Norm= 3.56D-05 Max= 2.09D-06
 Root I=  2 Norm= 2.15D-04 Max= 1.34D-05
 Root I=  3 Norm= 1.03D-04 Max= 6.98D-06
 Root I=  4 Norm= 5.64D-04 Max= 3.04D-05
 Root I=  5 Norm= 4.58D-04 Max= 3.05D-05
 Root I=  6 Norm= 9.26D-04 Max= 6.74D-05
 Root I=  7 Norm= 3.72D-03 Max= 2.30D-04
 Root I=  8 Norm= 3.17D-03 Max= 2.22D-04
 Root I=  9 Norm= 4.38D-03 Max= 2.24D-04
 Root I= 10 Norm= 1.87D-02 Max= 1.36D-03
 New vectors created:  10

 Right Eigenvector.

 Vector Nr. 111
 **********************
 DD1Dir will call FoFMem   1 times, MxPair=       110
 NAB=    55 NAA=     0 NBB=     0.
 Vector Nr. 112
 **********************
 DD1Dir will call FoFMem   1 times, MxPair=       110
 NAB=    55 NAA=     0 NBB=     0.
 Vector Nr. 113
 **********************
 DD1Dir will call FoFMem   1 times, MxPair=       110
 NAB=    55 NAA=     0 NBB=     0.
 Vector Nr. 114
 **********************
 DD1Dir will call FoFMem   1 times, MxPair=       110
 NAB=    55 NAA=     0 NBB=     0.
 Vector Nr. 115
 **********************
 DD1Dir will call FoFMem   1 times, MxPair=       110
 NAB=    55 NAA=     0 NBB=     0.
 Vector Nr. 116
 **********************
 DD1Dir will call FoFMem   1 times, MxPair=       110
 NAB=    55 NAA=     0 NBB=     0.
 Vector Nr. 117
 **********************
 DD1Dir will call FoFMem   1 times, MxPair=       110
 NAB=    55 NAA=     0 NBB=     0.
 Vector Nr. 118
 **********************
 DD1Dir will call FoFMem   1 times, MxPair=       110
 NAB=    55 NAA=     0 NBB=     0.
 Vector Nr. 119
 **********************
 DD1Dir will call FoFMem   1 times, MxPair=       110
 NAB=    55 NAA=     0 NBB=     0.
 Vector Nr. 120
 **********************
 DD1Dir will call FoFMem   1 times, MxPair=       110
 NAB=    55 NAA=     0 NBB=     0.
 Actual subspace dimension: NDim= 120, NOld= 110, NNew=  10
 Right eigenvalues (eV) at iteration   12
 Root  1 =    7.877864196106
 Root  2 =    9.646739253516
 Root  3 =    9.965430202690
 Root  4 =   10.435375406219
 Root  5 =   10.571445954089
 Root  6 =   11.028514614635
 Root  7 =   11.379612337979
 Root  8 =   11.645436060381
 Root  9 =   11.773816006417
 Root 10 =   11.900805197809
 Norms of the Right Residuals
 Root I=  1 Norm= 1.25D-05 Max= 7.85D-07
 Root I=  2 Norm= 9.47D-05 Max= 4.36D-06
 Root I=  3 Norm= 4.59D-05 Max= 2.43D-06
 Root I=  4 Norm= 2.61D-04 Max= 1.40D-05
 Root I=  5 Norm= 2.04D-04 Max= 1.23D-05
 Root I=  6 Norm= 5.84D-04 Max= 3.37D-05
 Root I=  7 Norm= 1.92D-03 Max= 1.06D-04
 Root I=  8 Norm= 2.50D-03 Max= 1.39D-04
 Root I=  9 Norm= 3.94D-03 Max= 1.78D-04
 Root I= 10 Norm= 3.56D-02 Max= 1.96D-03
 New vectors created:  10

 Right Eigenvector.

 Vector Nr. 121
 **********************
 DD1Dir will call FoFMem   1 times, MxPair=       110
 NAB=    55 NAA=     0 NBB=     0.
 Vector Nr. 122
 **********************
 DD1Dir will call FoFMem   1 times, MxPair=       110
 NAB=    55 NAA=     0 NBB=     0.
 Vector Nr. 123
 **********************
 DD1Dir will call FoFMem   1 times, MxPair=       110
 NAB=    55 NAA=     0 NBB=     0.
 Vector Nr. 124
 **********************
 DD1Dir will call FoFMem   1 times, MxPair=       110
 NAB=    55 NAA=     0 NBB=     0.
 Vector Nr. 125
 **********************
 DD1Dir will call FoFMem   1 times, MxPair=       110
 NAB=    55 NAA=     0 NBB=     0.
 Vector Nr. 126
 **********************
 DD1Dir will call FoFMem   1 times, MxPair=       110
 NAB=    55 NAA=     0 NBB=     0.
 Vector Nr. 127
 **********************
 DD1Dir will call FoFMem   1 times, MxPair=       110
 NAB=    55 NAA=     0 NBB=     0.
 Vector Nr. 128
 **********************
 DD1Dir will call FoFMem   1 times, MxPair=       110
 NAB=    55 NAA=     0 NBB=     0.
 Vector Nr. 129
 **********************
 DD1Dir will call FoFMem   1 times, MxPair=       110
 NAB=    55 NAA=     0 NBB=     0.
 Vector Nr. 130
 **********************
 DD1Dir will call FoFMem   1 times, MxPair=       110
 NAB=    55 NAA=     0 NBB=     0.
 Actual subspace dimension: NDim= 130, NOld= 120, NNew=  10
 Right eigenvalues (eV) at iteration   13
 Root  1 =    7.877864726564
 Root  2 =    9.646726608458
 Root  3 =    9.965428486233
 Root  4 =   10.435323931033
 Root  5 =   10.571417419133
 Root  6 =   11.028416698505
 Root  7 =   11.379506051016
 Root  8 =   11.644844454490
 Root  9 =   11.773482060225
 Root 10 =   11.862360977761
 Norms of the Right Residuals
 Root I=  1 Norm= 4.54D-06 Max= 2.01D-07
 Root I=  2 Norm= 3.99D-05 Max= 2.44D-06
 Root I=  3 Norm= 1.94D-05 Max= 1.51D-06
 Root I=  4 Norm= 1.18D-04 Max= 8.47D-06
 Root I=  5 Norm= 9.36D-05 Max= 5.98D-06
 Root I=  6 Norm= 2.81D-04 Max= 1.84D-05
 Root I=  7 Norm= 9.03D-04 Max= 5.49D-05
 Root I=  8 Norm= 1.58D-03 Max= 1.09D-04
 Root I=  9 Norm= 3.05D-03 Max= 2.17D-04
 Root I= 10 Norm= 2.77D-02 Max= 1.66D-03
 New vectors created:  10

 Right Eigenvector.

 Vector Nr. 131
 **********************
 DD1Dir will call FoFMem   1 times, MxPair=       110
 NAB=    55 NAA=     0 NBB=     0.
 Vector Nr. 132
 **********************
 DD1Dir will call FoFMem   1 times, MxPair=       110
 NAB=    55 NAA=     0 NBB=     0.
 Vector Nr. 133
 **********************
 DD1Dir will call FoFMem   1 times, MxPair=       110
 NAB=    55 NAA=     0 NBB=     0.
 Vector Nr. 134
 **********************
 DD1Dir will call FoFMem   1 times, MxPair=       110
 NAB=    55 NAA=     0 NBB=     0.
 Vector Nr. 135
 **********************
[...]
 NORM(A)=   0.10765749D+01
 Iteration Nr.  11
 **********************
 DD1Dir will call FoFMem   1 times, MxPair=       110
 NAB=    55 NAA=     0 NBB=     0.
 A-vector RMS=  1.1130343D-07 Max=  8.9111946D-07 conv= 1.00D-06.
 RLE energy=       -0.4192145924
 DE(Z)= -0.41921456     E(Z)=     -154.51058624     Delta=-1.16D-07
 NORM(A)=   0.10765751D+01
 Iteration Nr.  12
 **********************
 DD1Dir will call FoFMem   1 times, MxPair=       110
 NAB=    55 NAA=     0 NBB=     0.
 A-vector RMS=  4.2803990D-08 Max=  2.5982847D-07 conv= 1.00D-06.
 RLE energy=       -0.4192146256
 DE(Z)= -0.41921461     E(Z)=     -154.51058629     Delta=-5.31D-08
 NORM(A)=   0.10765751D+01
 Iteration Nr.  13
 **********************
 DD1Dir will call FoFMem   1 times, MxPair=       110
 NAB=    55 NAA=     0 NBB=     0.
 A-vector RMS=  1.8023831D-08 Max=  1.3107141D-07 conv= 1.00D-06.
 RLE energy=       -0.4192146347
 DE(Z)= -0.41921463     E(Z)=     -154.51058631     Delta=-1.88D-08
 NORM(A)=   0.10765751D+01
 Iteration Nr.  14
 **********************
 DD1Dir will call FoFMem   1 times, MxPair=       110
 NAB=    55 NAA=     0 NBB=     0.
 A-vector RMS=  7.2529265D-09 Max=  4.0398687D-08 conv= 1.00D-06.
 RLE energy=       -0.4192146351
 DE(Z)= -0.41921463     E(Z)=     -154.51058632     Delta=-5.30D-09
 NORM(A)=   0.10765751D+01
 CI/CC converged in   14 iterations to DelEn=-5.30D-09 Conv= 1.00D-08 ErrA1= 7.25D-09 Conv= 1.00D-06
 Z-amplitudes converged.
 Discarding MO integrals.
 Leave Link  913 at Tue Dec 14 23:51:23 2021, MaxMem=   536870912 cpu:            1311.8 elap:             329.6
 (Enter /opt/gaussian/g16/sse4/g16/l1111.exe)
 Unit  1 TFree=      23583394 TCopy=      22318704.
 Selected functions:
 Compute EOM-CCSD 2PDM.
 IO1PDM=    0 IOW=    0 IO2PDM=    0.
 MDV=     536870912.
 Frozen-core window:  NFC=   3 NFV=   0.
 Leave Link 1111 at Tue Dec 14 23:51:47 2021, MaxMem=   536870912 cpu:              90.4 elap:              22.8
 (Enter /opt/gaussian/g16/sse4/g16/l1002.exe)
 Minotr:  Closed shell wavefunction.
          Computing CCSD/QCISD derivatives.
          Using Z-Vector for PSCF gradient.
          Skipping F1 and S1 gradient terms here.
          Frozen-core window.
          Direct CPHF calculation.
          Differentiating once with respect to electric field.
                with respect to dipole field.
          Electric field/nuclear overlap derivatives assumed to be zero.
          Requested convergence is 1.0D-10 RMS, and 1.0D-09 maximum.
          NewPWx=F KeepS1=T KeepF1=T KeepIn=T MapXYZ=F SortEE=F KeepMc=T.
 Keep R1 ints in memory in canonical form, NReq=4338189.
 FoFCou: FMM=F IPFlag=           0 FMFlag=           0 FMFlg1=           0
         NFxFlg=           0 DoJE=F BraDBF=F KetDBF=F FulRan=T
         wScrn=  0.000000 ICntrl=       600 IOpCl=  0 I1Cent=           0 NGrid=           0
         NMat0=    1 NMatS0=   2628 NMatT0=    0 NMatD0=    1 NMtDS0=    0 NMtDT0=    0
 Symmetry not used in FoFCou.
 Two-electron integral symmetry not used.
          MDV=     536870912 using IRadAn=       5.
          Solving linear equations separately, MaxMat=       0.
          There are     1 degrees of freedom in the 1st order CPHF.  IDoFFX=0 NUNeed=     1.
 LinEq1:  Iter=  0 NonCon=     1 RMS=2.27D-02 Max=1.38D-01 NDo=     1
 AX will form     1 AO Fock derivatives at one time.
 LinEq1:  Iter=  1 NonCon=     1 RMS=5.00D-03 Max=3.12D-02 NDo=     1
 LinEq1:  Iter=  2 NonCon=     1 RMS=1.47D-03 Max=9.59D-03 NDo=     1
 LinEq1:  Iter=  3 NonCon=     1 RMS=3.58D-04 Max=2.04D-03 NDo=     1
 LinEq1:  Iter=  4 NonCon=     1 RMS=7.68D-05 Max=4.50D-04 NDo=     1
 LinEq1:  Iter=  5 NonCon=     1 RMS=1.54D-05 Max=9.54D-05 NDo=     1
 LinEq1:  Iter=  6 NonCon=     1 RMS=2.80D-06 Max=2.11D-05 NDo=     1
 LinEq1:  Iter=  7 NonCon=     1 RMS=7.32D-07 Max=5.27D-06 NDo=     1
 LinEq1:  Iter=  8 NonCon=     1 RMS=2.18D-07 Max=2.18D-06 NDo=     1
 LinEq1:  Iter=  9 NonCon=     1 RMS=4.30D-08 Max=3.59D-07 NDo=     1
 LinEq1:  Iter= 10 NonCon=     1 RMS=8.17D-09 Max=4.84D-08 NDo=     1
 LinEq1:  Iter= 11 NonCon=     1 RMS=1.46D-09 Max=8.10D-09 NDo=     1
 LinEq1:  Iter= 12 NonCon=     1 RMS=2.62D-10 Max=1.45D-09 NDo=     1
 LinEq1:  Iter= 13 NonCon=     0 RMS=4.08D-11 Max=2.12D-10 NDo=     1
 Linear equations converged to 1.000D-10 1.000D-09 after    13 iterations.
 End of Minotr F.D. properties file   721 does not exist.
 End of Minotr F.D. properties file   722 does not exist.
 End of Minotr F.D. properties file   788 does not exist.
 Leave Link 1002 at Tue Dec 14 23:51:48 2021, MaxMem=   536870912 cpu:               2.4 elap:               0.7
 (Enter /opt/gaussian/g16/sse4/g16/l601.exe)
 Copying SCF densities to generalized density rwf, IOpCl= 0 IROHF=0.

 **********************************************************************

            Population analysis using the QCI/CC density.

 **********************************************************************

 Alpha  occ. eigenvalues --  -20.55111 -11.28034 -11.22958  -1.35272  -1.00594
 Alpha  occ. eigenvalues --   -0.84049  -0.67943  -0.61569  -0.60043  -0.53909
 Alpha  occ. eigenvalues --   -0.52045  -0.47603  -0.43619
 Alpha virt. eigenvalues --    0.17798   0.21868   0.23280   0.25212   0.26330
 Alpha virt. eigenvalues --    0.28460   0.38159   0.40034   0.59531   0.62087
 Alpha virt. eigenvalues --    0.66005   0.72393   0.75085   0.80287   0.84634
 Alpha virt. eigenvalues --    0.87645   0.88455   0.88786   0.90554   0.92060
 Alpha virt. eigenvalues --    1.11369   1.13629   1.16716   1.27598   1.33030
 Alpha virt. eigenvalues --    1.36884   1.45942   1.50118   1.56380   1.64339
 Alpha virt. eigenvalues --    1.67612   1.74199   1.85283   1.86669   1.88578
 Alpha virt. eigenvalues --    1.91900   1.93254   1.94130   1.96858   2.03172
 Alpha virt. eigenvalues --    2.07973   2.14285   2.24862   2.26946   2.33847
 Alpha virt. eigenvalues --    2.41349   2.49080   2.50759   2.52692   2.72253
 Alpha virt. eigenvalues --    2.74351   2.80340   2.84859   2.89551   3.31657
 Alpha virt. eigenvalues --    3.39472   3.45395   3.62524   4.09643
          Condensed to atoms (all electrons):
               1          2          3          4          5          6
     1  C    4.891005   0.370569  -0.013580   0.331505   0.250334   0.351514
     2  C    0.370569   5.145876   0.327411  -0.056592  -0.085863  -0.041681
     3  O   -0.013580   0.327411   8.092332   0.000291  -0.027308  -0.008688
     4  H    0.331505  -0.056592   0.000291   0.658199   0.009964  -0.014514
     5  H    0.250334  -0.085863  -0.027308   0.009964   0.691635  -0.005754
     6  H    0.351514  -0.041681  -0.008688  -0.014514  -0.005754   0.639692
     7  H   -0.018660   0.129111  -0.070223   0.010859   0.027065   0.011142
     8  H   -0.030165   0.311232  -0.033875   0.003605   0.011885  -0.003179
     9  H   -0.058085  -0.210584  -0.478794   0.009034   0.102759   0.017834
               7          8          9
     1  C   -0.018660  -0.030165  -0.058085
     2  C    0.129111   0.311232  -0.210584
     3  O   -0.070223  -0.033875  -0.478794
     4  H    0.010859   0.003605   0.009034
     5  H    0.027065   0.011885   0.102759
     6  H    0.011142  -0.003179   0.017834
     7  H    0.737987  -0.003401   0.136861
     8  H   -0.003401   0.657168   0.034595
     9  H    0.136861   0.034595   1.912852
 Mulliken charges:
               1
     1  C   -0.074438
     2  C    0.110519
     3  O    0.212434
     4  H    0.047648
     5  H    0.025283
     6  H    0.053633
     7  H    0.039259
     8  H    0.052135
     9  H   -0.466472
 Sum of Mulliken charges =  -0.00000
 Mulliken charges with hydrogens summed into heavy atoms:
               1
     1  C    0.052126
     2  C    0.201913
     3  O   -0.254039
 Electronic spatial extent (au):  <R**2>=            202.8531
 Charge=             -0.0000 electrons
 Dipole moment (field-independent basis, Debye):
    X=             -1.9609    Y=              2.4502    Z=             -1.4808  Tot=              3.4701
 Quadrupole moment (field-independent basis, Debye-Ang):
   XX=            -23.3579   YY=            -23.0369   ZZ=            -23.4906
   XY=              2.2189   XZ=             -1.5292   YZ=              2.2442
 Traceless Quadrupole moment (field-independent basis, Debye-Ang):
   XX=             -0.0628   YY=              0.2582   ZZ=             -0.1955
   XY=              2.2189   XZ=             -1.5292   YZ=              2.2442
 Octapole moment (field-independent basis, Debye-Ang**2):
  XXX=             -4.1892  YYY=              8.3331  ZZZ=             -7.9627  XYY=             -2.7044
  XXY=              4.1341  XXZ=             -3.2983  XZZ=             -2.1866  YZZ=              3.4747
  YYZ=             -4.0869  XYZ=              1.8919
 Hexadecapole moment (field-independent basis, Debye-Ang**3):
 XXXX=           -175.0216 YYYY=            -77.8440 ZZZZ=            -52.3986 XXXY=              6.6961
 XXXZ=             -7.6180 YYYX=              7.4699 YYYZ=              7.1293 ZZZX=             -7.5135
 ZZZY=              6.7248 XXYY=            -44.0915 XXZZ=            -40.5823 YYZZ=            -20.9797
 XXYZ=              4.2052 YYXZ=             -4.4592 ZZXY=              4.1202
 N-N= 8.134488757308D+01 E-N=-5.227084765782D+02  KE= 1.544815026272D+02
 No NMR shielding tensors so no spin-rotation constants.
 Leave Link  601 at Tue Dec 14 23:51:48 2021, MaxMem=   536870912 cpu:               0.5 elap:               0.1
 (Enter /opt/gaussian/g16/sse4/g16/l106.exe)
 NDeriv=      3 NFrqRd=  0 NDerD0=      0 MskFDP=       0 MskDFD=       0 MskDF0=       0
 Re-enter D2Numr:  atom   0 IXYZ=3 step-down number 1
 Max difference between analytic and numerical Dipole moment IMax=       1 EMax= 8.17D-05
 Max difference between off-diagonal Polarizability IMax=       1 JMax=       2 EMax= 1.46D-03
 Isotropic polarizability=       50.93 Bohr**3.
                1             2             3 
      1  0.625029D+02
      2 -0.165114D+02  0.568779D+02
      3  0.487512D+01 -0.523022D+01  0.334058D+02
 FinFTb:  IFil= 1 IFilD=  777 LTop=  1 LFil=         4 LTop1=  0 IMask=  1
 Leave Link  106 at Tue Dec 14 23:51:48 2021, MaxMem=   536870912 cpu:               1.0 elap:               0.2
 (Enter /opt/gaussian/g16/sse4/g16/l9999.exe)
 Electronic transition elements 
                 1             2             3             4             5 
      1  -0.154322D+03 -0.154257D+03 -0.154245D+03 -0.154228D+03 -0.154223D+03
      2  -0.162051D+00 -0.150070D+00  0.179188D+00 -0.195310D+00 -0.269988D+00
      3  -0.250765D-01  0.247070D+00  0.117690D+00 -0.812093D-01 -0.444151D+00
      4   0.575062D-02  0.178013D+00 -0.905338D-01 -0.161160D-01 -0.537621D+00
      5  -0.879595D-01 -0.298844D-01  0.859143D-01 -0.550242D-01 -0.787371D-01
      6  -0.518464D-01  0.106164D+00  0.532338D-01 -0.160150D-01 -0.179740D+00
      7  -0.420607D-01  0.812898D-01 -0.721670D-01  0.243305D-02 -0.214343D+00
      8   0.403631D+00  0.343366D+00  0.715436D+00 -0.361286D-01 -0.390373D-01
      9   0.209860D+00 -0.879808D-01  0.369426D+00 -0.150040D+00 -0.146800D+00
     10  -0.563874D+00  0.879693D-01  0.573603D+00  0.362837D+00  0.111676D+00
     11   0.000000D+00  0.000000D+00  0.000000D+00  0.000000D+00  0.000000D+00
     12   0.000000D+00  0.000000D+00  0.000000D+00  0.000000D+00  0.000000D+00
     13   0.000000D+00  0.000000D+00  0.000000D+00  0.000000D+00  0.000000D+00
     14   0.000000D+00  0.000000D+00  0.000000D+00  0.000000D+00  0.000000D+00
     15   0.000000D+00  0.000000D+00  0.000000D+00  0.000000D+00  0.000000D+00
     16   0.000000D+00  0.000000D+00  0.000000D+00  0.000000D+00  0.000000D+00
     17  -0.154322D+03 -0.154257D+03 -0.154245D+03 -0.154228D+03 -0.154223D+03
     18  -0.165711D+00 -0.151332D+00  0.182164D+00 -0.197374D+00 -0.278121D+00
     19  -0.242832D-01  0.253633D+00  0.122305D+00 -0.861875D-01 -0.454928D+00
     20   0.775841D-02  0.182607D+00 -0.895141D-01 -0.183689D-01 -0.552944D+00
     21  -0.866294D-01 -0.238495D-01  0.846352D-01 -0.519197D-01 -0.787015D-01
     22  -0.524521D-01  0.105583D+00  0.540138D-01 -0.193725D-01 -0.180417D+00
     23  -0.422842D-01  0.820542D-01 -0.706926D-01  0.145186D-02 -0.217242D+00
     24   0.415515D+00  0.356222D+00  0.738366D+00 -0.414777D-01 -0.378036D-01
     25   0.214440D+00 -0.804493D-01  0.379590D+00 -0.146808D+00 -0.146222D+00
     26  -0.577831D+00  0.898978D-01  0.592863D+00  0.366473D+00  0.113218D+00
     27   0.000000D+00  0.000000D+00  0.000000D+00  0.000000D+00  0.000000D+00
     28   0.000000D+00  0.000000D+00  0.000000D+00  0.000000D+00  0.000000D+00
     29   0.000000D+00  0.000000D+00  0.000000D+00  0.000000D+00  0.000000D+00
     30   0.000000D+00  0.000000D+00  0.000000D+00  0.000000D+00  0.000000D+00
     31   0.000000D+00  0.000000D+00  0.000000D+00  0.000000D+00  0.000000D+00
     32   0.000000D+00  0.000000D+00  0.000000D+00  0.000000D+00  0.000000D+00
                 6             7             8             9            10 
      1  -0.154206D+03 -0.154194D+03 -0.154184D+03 -0.154179D+03 -0.154177D+03
      2   0.103668D+00 -0.365394D+00 -0.388465D+00  0.370756D+00  0.103506D+00
      3   0.157473D+00  0.165637D+00  0.598542D+00  0.335128D+00 -0.895318D-01
      4  -0.802217D-01 -0.148140D-01 -0.212391D+00 -0.744115D+00  0.197176D+00
      5   0.507233D-01 -0.136360D+00 -0.165045D+00  0.150191D+00  0.412447D-01
      6   0.684054D-01  0.641552D-01  0.261960D+00  0.144698D+00 -0.407212D-01
      7  -0.596072D-01 -0.148600D-01 -0.996221D-01 -0.332346D+00  0.779877D-01
      8  -0.569715D+00  0.522898D-02  0.644925D-01  0.726497D-01  0.159522D+00
      9   0.120904D+01 -0.898717D-01  0.161217D+00 -0.779929D+00 -0.631752D-01
     10   0.334806D+00 -0.110887D+00 -0.103043D+01 -0.109826D+00 -0.557564D-01
     11   0.000000D+00  0.000000D+00  0.000000D+00  0.000000D+00  0.000000D+00
     12   0.000000D+00  0.000000D+00  0.000000D+00  0.000000D+00  0.000000D+00
     13   0.000000D+00  0.000000D+00  0.000000D+00  0.000000D+00  0.000000D+00
     14   0.000000D+00  0.000000D+00  0.000000D+00  0.000000D+00  0.000000D+00
     15   0.000000D+00  0.000000D+00  0.000000D+00  0.000000D+00  0.000000D+00
     16   0.000000D+00  0.000000D+00  0.000000D+00  0.000000D+00  0.000000D+00
     17  -0.154206D+03 -0.154194D+03 -0.154184D+03 -0.154179D+03 -0.154177D+03
     18   0.105833D+00 -0.369445D+00 -0.396488D+00  0.368842D+00  0.899879D-01
     19   0.161621D+00  0.168103D+00  0.616099D+00  0.354069D+00 -0.100568D+00
     20  -0.832895D-01 -0.180501D-01 -0.225912D+00 -0.770318D+00  0.223533D+00
     21   0.527120D-01 -0.131183D+00 -0.167365D+00  0.145381D+00  0.314907D-01
     22   0.684790D-01  0.637411D-01  0.268262D+00  0.153192D+00 -0.443087D-01
     23  -0.612945D-01 -0.169537D-01 -0.104772D+00 -0.341801D+00  0.884431D-01
     24  -0.582638D+00  0.524818D-02  0.610909D-01  0.657777D-01  0.156860D+00
     25   0.123363D+01 -0.999753D-01  0.158012D+00 -0.791272D+00 -0.501838D-01
     26   0.343301D+00 -0.108191D+00 -0.105273D+01 -0.115198D+00 -0.399372D-01
     27   0.000000D+00  0.000000D+00  0.000000D+00  0.000000D+00  0.000000D+00
     28   0.000000D+00  0.000000D+00  0.000000D+00  0.000000D+00  0.000000D+00
     29   0.000000D+00  0.000000D+00  0.000000D+00  0.000000D+00  0.000000D+00
     30   0.000000D+00  0.000000D+00  0.000000D+00  0.000000D+00  0.000000D+00
     31   0.000000D+00  0.000000D+00  0.000000D+00  0.000000D+00  0.000000D+00
     32   0.000000D+00  0.000000D+00  0.000000D+00  0.000000D+00  0.000000D+00

 ----------------------------------------------------------------------

 Electric dipole moment (input orientation):
 (Debye = 10**-18 statcoulomb cm , SI units = C m)
                  (au)            (Debye)         (10**-30 SI)
   Tot        0.137223D+01      0.348785D+01      0.116342D+02
   x         -0.773124D+00     -0.196509D+01     -0.655482D+01
   y          0.965782D+00      0.245477D+01      0.818824D+01
   z         -0.593757D+00     -0.150918D+01     -0.503408D+01

 Dipole polarizability, Alpha (input orientation).
 (esu units = cm**3 , SI units = C**2 m**2 J**-1)
 Alpha(0;0):
               (au)            (10**-24 esu)      (10**-40 SI)
   iso        0.509289D+02      0.754688D+01      0.839704D+01
   aniso      0.410592D+02      0.608435D+01      0.676975D+01
   xx         0.625029D+02      0.926198D+01      0.103053D+02
   yx        -0.165114D+02     -0.244674D+01     -0.272236D+01
   yy         0.568779D+02      0.842844D+01      0.937790D+01
   zx         0.487512D+01      0.722419D+00      0.803799D+00
   zy        -0.523022D+01     -0.775038D+00     -0.862346D+00
   zz         0.334058D+02      0.495023D+01      0.550787D+01

 ----------------------------------------------------------------------

 Dipole orientation:
     6         -1.88674565          0.96030439          0.99262375
     6          0.37246739         -0.79806355          0.60976354
     8          1.79886758         -0.17753555         -1.57924917
     1         -2.89536282          0.51178270          2.76607893
     1         -3.24968206          0.76903213         -0.58298503
     1         -1.25097541          2.94641174          1.06338223
     1         -0.27368749         -2.79530297          0.56028709
     1          1.69582743         -0.62376771          2.21364765
     1          0.66860928         -0.36131656         -3.00074130

 Electric dipole moment (dipole orientation):
 (Debye = 10**-18 statcoulomb cm , SI units = C m)
                  (au)            (Debye)         (10**-30 SI)
   Tot        0.137223D+01      0.348785D+01      0.116342D+02
   x          0.000000D+00      0.000000D+00      0.000000D+00
   y          0.000000D+00      0.000000D+00      0.000000D+00
   z          0.137223D+01      0.348785D+01      0.116342D+02

 Dipole polarizability, Alpha (dipole orientation).
 (esu units = cm**3 , SI units = C**2 m**2 J**-1)
 Alpha(0;0):
               (au)            (10**-24 esu)      (10**-40 SI)
   iso        0.509289D+02      0.754688D+01      0.839704D+01
   aniso      0.410592D+02      0.608435D+01      0.676975D+01
   xx         0.430759D+02      0.638318D+01      0.710225D+01
   yx        -0.366513D+01     -0.543116D+00     -0.604298D+00
   yy         0.367848D+02      0.545095D+01      0.606500D+01
   zx        -0.120548D+02     -0.178634D+01     -0.198757D+01
   zy        -0.551386D+01     -0.817069D+00     -0.909112D+00
   zz         0.729260D+02      0.108065D+02      0.120239D+02

 ----------------------------------------------------------------------
 1\1\GINC-NODE677\SP\REOMCCSD-FC\CC-pVDZ\C2H6O1\THEOB\14-Dec-2021\0\\#p
  eomccsd=(nstate=10)/cc-pvdz guess=read geom=allcheck polar\\Ethanol.x
 yz\\0,1\C,0,0.9948743283,0.0732900124,-0.0591908094\C,0,2.5228451155,0
 .0918523346,-0.0922660144\O,0,3.0394328832,1.2615715497,-0.7121897742\
 H,0,0.6198572477,-0.81506082,0.4813034538\H,0,0.5808924317,0.044047386
 1,-1.0855296139\H,0,0.6128795877,0.9813529612,0.4395066006\H,0,2.90291
 13278,-0.8286176352,-0.5851257055\H,0,2.9242699479,0.0970075245,0.9363
 763547\H,0,2.7108171303,1.2569866865,-1.6204944918\\Version=ES64L-G16R
 evA.03\HF=-154.0912095\MP2=-154.573735\MP3=-154.6047119\RMSD=1.808e-10
 \Dipole=-0.7731244,0.9657816,-0.5937569\Polar=62.5029476,-16.511396,56
 .8779073,4.8751226,-5.2302162,33.4057745\PG=C01 [X(C2H6O1)]\\@


      THE ONE-EYED VIEW OF OUR UNIVERSE SAYS YOU MUST NOT LOOK
      FAR AFIELD FOR PROBLEMS.  SUCH PROBLEMS MAY NEVER ARRIVE. 
      INSTEAD, TEND TO THE WOLF WITHIN YOUR FENCES.
      THE PACKS RANGING OUTSIDE MAY NOT EVEN EXIST.

                              -- THE AZHAR BOOK SHAMRA I:4
                                 CHILDREN OF DUNE, BY FRANK HERBERT
 Job cpu time:       0 days  2 hours 43 minutes  4.3 seconds.
 Elapsed time:       0 days  0 hours 40 minutes 56.9 seconds.
 File lengths (MBytes):  RWF=   1741 Int=      0 D2E=      0 Chk=    156 Scr=      1
 Normal termination of Gaussian 16 at Tue Dec 14 23:52:14 2021.
