 Entering Gaussian System, Link 0=/opt/gaussian/g16/sse4/g16/g16
 Initial command:
 /opt/gaussian/g16/sse4/g16/l1.exe "/scratch/1549342/Gau-15494.inp" -scrdir="/scratch/1549342/"
 Entering Link 1 = /opt/gaussian/g16/sse4/g16/l1.exe PID=     15498.
  
 Copyright (c) 1988,1990,1992,1993,1995,1998,2003,2009,2016,
            Gaussian, Inc.  All Rights Reserved.
  
 This is part of the Gaussian(R) 16 program.  It is based on
 the Gaussian(R) 09 system (copyright 2009, Gaussian, Inc.),
 the Gaussian(R) 03 system (copyright 2003, Gaussian, Inc.),
 the Gaussian(R) 98 system (copyright 1998, Gaussian, Inc.),
 the Gaussian(R) 94 system (copyright 1995, Gaussian, Inc.),
 the Gaussian 92(TM) system (copyright 1992, Gaussian, Inc.),
 the Gaussian 90(TM) system (copyright 1990, Gaussian, Inc.),
 the Gaussian 88(TM) system (copyright 1988, Gaussian, Inc.),
 the Gaussian 86(TM) system (copyright 1986, Carnegie Mellon
 University), and the Gaussian 82(TM) system (copyright 1983,
 Carnegie Mellon University). Gaussian is a federally registered
 trademark of Gaussian, Inc.
  
 This software contains proprietary and confidential information,
 including trade secrets, belonging to Gaussian, Inc.
  
 This software is provided under written license and may be
 used, copied, transmitted, or stored only in accord with that
 written license.
  
 The following legend is applicable only to US Government
 contracts under FAR:
  
                    RESTRICTED RIGHTS LEGEND
  
 Use, reproduction and disclosure by the US Government is
 subject to restrictions as set forth in subparagraphs (a)
 and (c) of the Commercial Computer Software - Restricted
 Rights clause in FAR 52.227-19.
  
 Gaussian, Inc.
 340 Quinnipiac St., Bldg. 40, Wallingford CT 06492
  
  
 ---------------------------------------------------------------
 Warning -- This program may not be used in any manner that
 competes with the business of Gaussian, Inc. or will provide
 assistance to any competitor of Gaussian, Inc.  The licensee
 of this program is prohibited from giving any competitor of
 Gaussian, Inc. access to this program.  By using this program,
 the user acknowledges that Gaussian, Inc. is engaged in the
 business of creating and licensing software in the field of
 computational chemistry and represents and warrants to the
 licensee that it is not a competitor of Gaussian, Inc. and that
 it will not use this program in any manner prohibited above.
 ---------------------------------------------------------------
  

 Cite this work as:
 Gaussian 16, Revision A.03,
 M. J. Frisch, G. W. Trucks, H. B. Schlegel, G. E. Scuseria, 
 M. A. Robb, J. R. Cheeseman, G. Scalmani, V. Barone, 
 G. A. Petersson, H. Nakatsuji, X. Li, M. Caricato, A. V. Marenich, 
 J. Bloino, B. G. Janesko, R. Gomperts, B. Mennucci, H. P. Hratchian, 
 J. V. Ortiz, A. F. Izmaylov, J. L. Sonnenberg, D. Williams-Young, 
 F. Ding, F. Lipparini, F. Egidi, J. Goings, B. Peng, A. Petrone, 
 T. Henderson, D. Ranasinghe, V. G. Zakrzewski, J. Gao, N. Rega, 
 G. Zheng, W. Liang, M. Hada, M. Ehara, K. Toyota, R. Fukuda, 
 J. Hasegawa, M. Ishida, T. Nakajima, Y. Honda, O. Kitao, H. Nakai, 
 T. Vreven, K. Throssell, J. A. Montgomery, Jr., J. E. Peralta, 
 F. Ogliaro, M. J. Bearpark, J. J. Heyd, E. N. Brothers, K. N. Kudin, 
 V. N. Staroverov, T. A. Keith, R. Kobayashi, J. Normand, 
 K. Raghavachari, A. P. Rendell, J. C. Burant, S. S. Iyengar, 
 J. Tomasi, M. Cossi, J. M. Millam, M. Klene, C. Adamo, R. Cammi, 
 J. W. Ochterski, R. L. Martin, K. Morokuma, O. Farkas, 
 J. B. Foresman, and D. J. Fox, Gaussian, Inc., Wallingford CT, 2016.
 
 ******************************************
 Gaussian 16:  ES64L-G16RevA.03 25-Dec-2016
                16-Dec-2021 
 ******************************************
 %chk=CCSD_Ethanol_gaus.chk
 %nprocshared=4
 Will use up to    4 processors via shared memory.
 %mem=4GB
 ------------------------------------------------
 #p opt freq ccsd/cc-pvdz geom=connectivity polar
 ------------------------------------------------
 1/18=20,19=15,38=101,57=2/1,3;
 2/9=110,12=2,17=6,18=5,40=1/2;
 3/5=16,11=9,25=1,30=1,71=1/1,2,3;
 4//1;
 5/5=2,38=5,98=1/2;
 8/6=4,9=120000,10=1/1,4;
 9/5=7,15=1/13;
 11/28=-8,29=200,42=3/11;
 10/5=6/2;
 6/7=2,8=2,9=2,10=2/1;
 7/12=7/1,2,3,16;
 1/18=20,19=15,38=100/3(2);
 2/9=110/2;
 99//99;
 2/9=110/2;
 3/5=16,11=9,14=-3,25=1,30=1,71=1/1,2,3;
 4/5=5,16=3,69=1/1;
 5/5=2,38=5,98=1/2;
 8/6=4,9=120000,10=1/1,4;
 9/5=7,15=1/13;
 11/28=-8,29=200,42=3/11;
 10/5=6/2;
 7/12=7/1,2,3,16;
 1/18=20,19=15,38=100/3(-9);
 2/9=110/2;
 6/7=2,8=2,9=2,10=2/1;
 99//99;
 Leave Link    1 at Thu Dec 16 11:32:07 2021, MaxMem=   536870912 cpu:               0.1 elap:               0.0
 (Enter /opt/gaussian/g16/sse4/g16/l101.exe)
 -----------
 Ethanol.xyz
 -----------
 Symbolic Z-matrix:
 Charge =  0 Multiplicity = 1
 C                     1.0111    0.07708  -0.05953 
 C                     2.52569   0.07985  -0.0664 
 O                     3.00581   1.24365  -0.72365 
 H                     0.62516  -0.80571   0.4578 
 H                     0.61937   0.08556  -1.08199 
 H                     0.62645   0.97441   0.4362 
 H                     2.91751  -0.80185  -0.58251 
 H                     2.91316   0.08142   0.95654 
 H                     2.66453   1.22802  -1.63407 
 
 ITRead=  0  0  0  0  0  0  0  0  0
 MicOpt= -1 -1 -1 -1 -1 -1 -1 -1 -1
 NAtoms=      9 NQM=        9 NQMF=       0 NMMI=      0 NMMIF=      0
                NMic=       0 NMicF=      0.
                    Isotopes and Nuclear Properties:
 (Nuclear quadrupole moments (NQMom) in fm**2, nuclear magnetic moments (NMagM)
  in nuclear magnetons)

  Atom         1           2           3           4           5           6           7           8           9
 IAtWgt=          12          12          16           1           1           1           1           1           1
 AtmWgt=  12.0000000  12.0000000  15.9949146   1.0078250   1.0078250   1.0078250   1.0078250   1.0078250   1.0078250
 NucSpn=           0           0           0           1           1           1           1           1           1
 AtZEff=  -0.0000000  -0.0000000  -0.0000000  -0.0000000  -0.0000000  -0.0000000  -0.0000000  -0.0000000  -0.0000000
 NQMom=    0.0000000   0.0000000   0.0000000   0.0000000   0.0000000   0.0000000   0.0000000   0.0000000   0.0000000
 NMagM=    0.0000000   0.0000000   0.0000000   2.7928460   2.7928460   2.7928460   2.7928460   2.7928460   2.7928460
 AtZNuc=   6.0000000   6.0000000   8.0000000   1.0000000   1.0000000   1.0000000   1.0000000   1.0000000   1.0000000
 Leave Link  101 at Thu Dec 16 11:32:09 2021, MaxMem=   536870912 cpu:               0.8 elap:               0.2
 (Enter /opt/gaussian/g16/sse4/g16/l103.exe)

 GradGradGradGradGradGradGradGradGradGradGradGradGradGradGradGradGradGrad
 Berny optimization.
 Initialization pass.
                           ----------------------------
                           !    Initial Parameters    !
                           ! (Angstroms and Degrees)  !
 --------------------------                            --------------------------
 ! Name  Definition              Value          Derivative Info.                !
 --------------------------------------------------------------------------------
 ! R1    R(1,2)                  1.5146         estimate D2E/DX2                !
 ! R2    R(1,4)                  1.0936         estimate D2E/DX2                !
 ! R3    R(1,5)                  1.095          estimate D2E/DX2                !
 ! R4    R(1,6)                  1.0949         estimate D2E/DX2                !
 ! R5    R(2,3)                  1.4202         estimate D2E/DX2                !
 ! R6    R(2,7)                  1.0942         estimate D2E/DX2                !
 ! R7    R(2,8)                  1.0939         estimate D2E/DX2                !
 ! R8    R(3,9)                  0.9724         estimate D2E/DX2                !
 ! A1    A(2,1,4)              110.8875         estimate D2E/DX2                !
 ! A2    A(2,1,5)              110.7016         estimate D2E/DX2                !
 ! A3    A(2,1,6)              110.6003         estimate D2E/DX2                !
 ! A4    A(4,1,5)              108.7678         estimate D2E/DX2                !
 ! A5    A(4,1,6)              108.869          estimate D2E/DX2                !
 ! A6    A(5,1,6)              106.9023         estimate D2E/DX2                !
 ! A7    A(1,2,3)              109.9782         estimate D2E/DX2                !
 ! A8    A(1,2,7)              111.0233         estimate D2E/DX2                !
 ! A9    A(1,2,8)              110.4859         estimate D2E/DX2                !
 ! A10   A(3,2,7)              108.722          estimate D2E/DX2                !
 ! A11   A(3,2,8)              108.1712         estimate D2E/DX2                !
 ! A12   A(7,2,8)              108.3854         estimate D2E/DX2                !
 ! A13   A(2,3,9)              107.5458         estimate D2E/DX2                !
 ! D1    D(4,1,2,3)           -179.0862         estimate D2E/DX2                !
 ! D2    D(4,1,2,7)             60.5425         estimate D2E/DX2                !
 ! D3    D(4,1,2,8)            -59.7424         estimate D2E/DX2                !
 ! D4    D(5,1,2,3)             60.0936         estimate D2E/DX2                !
 ! D5    D(5,1,2,7)            -60.2777         estimate D2E/DX2                !
 ! D6    D(5,1,2,8)            179.4374         estimate D2E/DX2                !
 ! D7    D(6,1,2,3)            -58.2062         estimate D2E/DX2                !
 ! D8    D(6,1,2,7)           -178.5775         estimate D2E/DX2                !
 ! D9    D(6,1,2,8)             61.1376         estimate D2E/DX2                !
 ! D10   D(1,2,3,9)            -59.8749         estimate D2E/DX2                !
 ! D11   D(7,2,3,9)             61.8776         estimate D2E/DX2                !
 ! D12   D(8,2,3,9)            179.3775         estimate D2E/DX2                !
 --------------------------------------------------------------------------------
 Trust Radius=3.00D-01 FncErr=1.00D-07 GrdErr=1.00D-07 EigMax=2.50D+02 EigMin=1.00D-04
 Number of steps in this run=     43 maximum allowed number of steps=    100.
 GradGradGradGradGradGradGradGradGradGradGradGradGradGradGradGradGradGrad

 Leave Link  103 at Thu Dec 16 11:32:09 2021, MaxMem=   536870912 cpu:               0.0 elap:               0.0
 (Enter /opt/gaussian/g16/sse4/g16/l202.exe)
                          Input orientation:                          
 ---------------------------------------------------------------------
 Center     Atomic      Atomic             Coordinates (Angstroms)
 Number     Number       Type             X           Y           Z
 ---------------------------------------------------------------------
      1          6           0        1.011100    0.077080   -0.059530
      2          6           0        2.525690    0.079850   -0.066400
      3          8           0        3.005810    1.243650   -0.723650
      4          1           0        0.625160   -0.805710    0.457800
      5          1           0        0.619370    0.085560   -1.081990
      6          1           0        0.626450    0.974410    0.436200
      7          1           0        2.917510   -0.801850   -0.582510
      8          1           0        2.913160    0.081420    0.956540
      9          1           0        2.664530    1.228020   -1.634070
 ---------------------------------------------------------------------
                    Distance matrix (angstroms):
                    1          2          3          4          5
     1  C    0.000000
     2  C    1.514608   0.000000
     3  O    2.404331   1.420184   0.000000
     4  H    1.093571   2.161253   3.356068   0.000000
     5  H    1.094965   2.159980   2.676691   1.779143   0.000000
     6  H    1.094945   2.158693   2.660657   1.780252   1.759263
     7  H    2.163429   1.094206   2.052264   2.517365   2.513648
     8  H    2.156444   1.093865   2.045092   2.504134   3.068728
     9  H    2.556887   1.948117   0.972410   3.559636   2.406800
                    6          7          8          9
     6  H    0.000000
     7  H    3.072755   0.000000
     8  H    2.509428   1.774503   0.000000
     9  H    2.916180   2.300033   2.843900   0.000000
 Stoichiometry    C2H6O
 Framework group  C1[X(C2H6O)]
 Deg. of freedom    21
 Full point group                 C1      NOp   1
 Largest Abelian subgroup         C1      NOp   1
 Largest concise Abelian subgroup C1      NOp   1
                         Standard orientation:                         
 ---------------------------------------------------------------------
 Center     Atomic      Atomic             Coordinates (Angstroms)
 Number     Number       Type             X           Y           Z
 ---------------------------------------------------------------------
      1          6           0       -1.189013   -0.242578   -0.020188
      2          6           0        0.082495    0.577704    0.046466
      3          8           0        1.213414   -0.266431   -0.112846
      4          1           0       -2.070742    0.395723    0.084802
      5          1           0       -1.204425   -0.997807    0.772491
      6          1           0       -1.251755   -0.779289   -0.972506
      7          1           0        0.164518    1.097414    1.005873
      8          1           0        0.098776    1.324289   -0.752839
      9          1           0        1.195425   -0.919638    0.607278
 ---------------------------------------------------------------------
 Rotational constants (GHZ):          33.3036258           9.5408688           8.3219240
 Leave Link  202 at Thu Dec 16 11:32:09 2021, MaxMem=   536870912 cpu:               0.0 elap:               0.0
 (Enter /opt/gaussian/g16/sse4/g16/l301.exe)
 Standard basis: CC-pVDZ (5D, 7F)
 Ernie: Thresh=  0.10000D-02 Tol=  0.10000D-05 Strict=F.
 Ernie:  6 primitive shells out of 96 were deleted.
 There are    75 symmetry adapted cartesian basis functions of A   symmetry.
 There are    72 symmetry adapted basis functions of A   symmetry.
    72 basis functions,   141 primitive gaussians,    75 cartesian basis functions
    13 alpha electrons       13 beta electrons
       nuclear repulsion energy        82.0240653680 Hartrees.
 IExCor=    0 DFT=F Ex=HF Corr=None ExCW=0 ScaHFX=  1.000000
 ScaDFX=  1.000000  1.000000  1.000000  1.000000 ScalE2=  1.000000  1.000000
 IRadAn=      5 IRanWt=     -1 IRanGd=            0 ICorTp=0 IEmpDi=  4
 NAtoms=    9 NActive=    9 NUniq=    9 SFac= 1.00D+00 NAtFMM=   60 NAOKFM=F Big=F
 Integral buffers will be    131072 words long.
 Raffenetti 1 integral format.
 Two-electron integral symmetry is turned on.
 Leave Link  301 at Thu Dec 16 11:32:10 2021, MaxMem=   536870912 cpu:               0.1 elap:               0.0
 (Enter /opt/gaussian/g16/sse4/g16/l302.exe)
 NPDir=0 NMtPBC=     1 NCelOv=     1 NCel=       1 NClECP=     1 NCelD=      1
         NCelK=      1 NCelE2=     1 NClLst=     1 CellRange=     0.0.
 One-electron integrals computed using PRISM.
 One-electron integral symmetry used in STVInt
 NBasis=    72 RedAO= T EigKep=  6.42D-03  NBF=    72
 NBsUse=    72 1.00D-06 EigRej= -1.00D+00 NBFU=    72
 Leave Link  302 at Thu Dec 16 11:32:10 2021, MaxMem=   536870912 cpu:               0.5 elap:               0.1
 (Enter /opt/gaussian/g16/sse4/g16/l303.exe)
 DipDrv:  MaxL=1.
 Leave Link  303 at Thu Dec 16 11:32:10 2021, MaxMem=   536870912 cpu:               0.1 elap:               0.0
 (Enter /opt/gaussian/g16/sse4/g16/l401.exe)
 ExpMin= 1.22D-01 ExpMax= 1.17D+04 ExpMxC= 4.01D+02 IAcc=3 IRadAn=         5 AccDes= 0.00D+00
 Harris functional with IExCor=  205 and IRadAn=       5 diagonalized for initial guess.
 HarFok:  IExCor=  205 AccDes= 0.00D+00 IRadAn=         5 IDoV= 1 UseB2=F ITyADJ=14
 ICtDFT=  3500011 ScaDFX=  1.000000  1.000000  1.000000  1.000000
 FoFCou: FMM=F IPFlag=           0 FMFlag=      100000 FMFlg1=           0
         NFxFlg=           0 DoJE=T BraDBF=F KetDBF=T FulRan=T
         wScrn=  0.000000 ICntrl=       500 IOpCl=  0 I1Cent=   200000004 NGrid=           0
         NMat0=    1 NMatS0=      1 NMatT0=    0 NMatD0=    1 NMtDS0=    0 NMtDT0=    0
 Petite list used in FoFCou.
 Harris En= -154.356717510674    
 JPrj=0 DoOrth=F DoCkMO=F.
 Leave Link  401 at Thu Dec 16 11:32:11 2021, MaxMem=   536870912 cpu:               1.7 elap:               0.4
 (Enter /opt/gaussian/g16/sse4/g16/l502.exe)
 Keep R1 ints in memory in canonical form, NReq=4336610.
 FoFCou: FMM=F IPFlag=           0 FMFlag=           0 FMFlg1=           0
         NFxFlg=           0 DoJE=F BraDBF=F KetDBF=F FulRan=T
         wScrn=  0.000000 ICntrl=       600 IOpCl=  0 I1Cent=           0 NGrid=           0
         NMat0=    1 NMatS0=   2628 NMatT0=    0 NMatD0=    1 NMtDS0=    0 NMtDT0=    0
 Symmetry not used in FoFCou.
 Two-electron integral symmetry not used.
 Closed shell SCF:
 Using DIIS extrapolation, IDIIS=  1040.
 NGot=   536870912 LenX=   533403697 LenY=   533397631
 Requested convergence on RMS density matrix=1.00D-08 within 128 cycles.
 Requested convergence on MAX density matrix=1.00D-06.
 Requested convergence on             energy=1.00D-06.
 No special actions if energy rises.

 Cycle   1  Pass 1  IDiag  1:
 E= -153.917564715805    
 DIIS: error= 3.43D-02 at cycle   1 NSaved=   1.
 NSaved= 1 IEnMin= 1 EnMin= -153.917564715805     IErMin= 1 ErrMin= 3.43D-02
 ErrMax= 3.43D-02  0.00D+00 EMaxC= 1.00D-01 BMatC= 2.04D-01 BMatP= 2.04D-01
 IDIUse=3 WtCom= 6.57D-01 WtEn= 3.43D-01
 Coeff-Com:  0.100D+01
 Coeff-En:   0.100D+01
 Coeff:      0.100D+01
 Gap=     0.562 Goal=   None    Shift=    0.000
 GapD=    0.562 DampG=2.000 DampE=0.500 DampFc=1.0000 IDamp=-1.
 RMSDP=6.21D-03 MaxDP=1.17D-01              OVMax= 1.22D-01

 Cycle   2  Pass 1  IDiag  1:
 E= -154.059998277528     Delta-E=       -0.142433561722 Rises=F Damp=F
 DIIS: error= 1.50D-02 at cycle   2 NSaved=   2.
 NSaved= 2 IEnMin= 2 EnMin= -154.059998277528     IErMin= 2 ErrMin= 1.50D-02
 ErrMax= 1.50D-02  0.00D+00 EMaxC= 1.00D-01 BMatC= 3.63D-02 BMatP= 2.04D-01
 IDIUse=3 WtCom= 8.50D-01 WtEn= 1.50D-01
 Coeff-Com:  0.264D+00 0.736D+00
 Coeff-En:   0.000D+00 0.100D+01
 Coeff:      0.225D+00 0.775D+00
 Gap=     0.632 Goal=   None    Shift=    0.000
 RMSDP=2.23D-03 MaxDP=3.21D-02 DE=-1.42D-01 OVMax= 3.83D-02

 Cycle   3  Pass 1  IDiag  1:
 E= -154.089893139680     Delta-E=       -0.029894862152 Rises=F Damp=F
 DIIS: error= 2.46D-03 at cycle   3 NSaved=   3.
 NSaved= 3 IEnMin= 3 EnMin= -154.089893139680     IErMin= 3 ErrMin= 2.46D-03
 ErrMax= 2.46D-03  0.00D+00 EMaxC= 1.00D-01 BMatC= 1.12D-03 BMatP= 3.63D-02
 IDIUse=3 WtCom= 9.75D-01 WtEn= 2.46D-02
 Coeff-Com: -0.206D-01 0.974D-01 0.923D+00
 Coeff-En:   0.000D+00 0.000D+00 0.100D+01
 Coeff:     -0.200D-01 0.950D-01 0.925D+00
 Gap=     0.611 Goal=   None    Shift=    0.000
 RMSDP=3.38D-04 MaxDP=8.06D-03 DE=-2.99D-02 OVMax= 7.49D-03

 Cycle   4  Pass 1  IDiag  1:
 E= -154.090878300730     Delta-E=       -0.000985161049 Rises=F Damp=F
 DIIS: error= 6.09D-04 at cycle   4 NSaved=   4.
 NSaved= 4 IEnMin= 4 EnMin= -154.090878300730     IErMin= 4 ErrMin= 6.09D-04
 ErrMax= 6.09D-04  0.00D+00 EMaxC= 1.00D-01 BMatC= 6.48D-05 BMatP= 1.12D-03
 IDIUse=3 WtCom= 9.94D-01 WtEn= 6.09D-03
 Coeff-Com: -0.104D-01-0.137D-02 0.197D+00 0.815D+00
 Coeff-En:   0.000D+00 0.000D+00 0.000D+00 0.100D+01
 Coeff:     -0.103D-01-0.137D-02 0.196D+00 0.816D+00
 Gap=     0.614 Goal=   None    Shift=    0.000
 RMSDP=1.07D-04 MaxDP=1.82D-03 DE=-9.85D-04 OVMax= 2.14D-03

 Cycle   5  Pass 1  IDiag  1:
 E= -154.090943629829     Delta-E=       -0.000065329099 Rises=F Damp=F
 DIIS: error= 3.26D-04 at cycle   5 NSaved=   5.
 NSaved= 5 IEnMin= 5 EnMin= -154.090943629829     IErMin= 5 ErrMin= 3.26D-04
 ErrMax= 3.26D-04  0.00D+00 EMaxC= 1.00D-01 BMatC= 5.57D-06 BMatP= 6.48D-05
 IDIUse=3 WtCom= 9.97D-01 WtEn= 3.26D-03
 Coeff-Com:  0.151D-02-0.123D-01-0.929D-01 0.615D-01 0.104D+01
 Coeff-En:   0.000D+00 0.000D+00 0.000D+00 0.000D+00 0.100D+01
 Coeff:      0.151D-02-0.122D-01-0.926D-01 0.613D-01 0.104D+01
 Gap=     0.614 Goal=   None    Shift=    0.000
 RMSDP=4.42D-05 MaxDP=4.22D-04 DE=-6.53D-05 OVMax= 7.61D-04

 Cycle   6  Pass 1  IDiag  1:
 E= -154.090952119749     Delta-E=       -0.000008489920 Rises=F Damp=F
 DIIS: error= 2.97D-05 at cycle   6 NSaved=   6.
 NSaved= 6 IEnMin= 6 EnMin= -154.090952119749     IErMin= 6 ErrMin= 2.97D-05
 ErrMax= 2.97D-05  0.00D+00 EMaxC= 1.00D-01 BMatC= 1.46D-07 BMatP= 5.57D-06
 IDIUse=1 WtCom= 1.00D+00 WtEn= 0.00D+00
 Coeff-Com:  0.517D-03-0.648D-03-0.110D-01-0.366D-01 0.180D-01 0.103D+01
 Coeff:      0.517D-03-0.648D-03-0.110D-01-0.366D-01 0.180D-01 0.103D+01
 Gap=     0.614 Goal=   None    Shift=    0.000
 RMSDP=1.02D-05 MaxDP=1.04D-04 DE=-8.49D-06 OVMax= 1.87D-04

 Cycle   7  Pass 1  IDiag  1:
 E= -154.090952423146     Delta-E=       -0.000000303397 Rises=F Damp=F
 DIIS: error= 9.30D-06 at cycle   7 NSaved=   7.
 NSaved= 7 IEnMin= 7 EnMin= -154.090952423146     IErMin= 7 ErrMin= 9.30D-06
 ErrMax= 9.30D-06  0.00D+00 EMaxC= 1.00D-01 BMatC= 1.04D-08 BMatP= 1.46D-07
 IDIUse=1 WtCom= 1.00D+00 WtEn= 0.00D+00
 Coeff-Com: -0.795D-04 0.484D-03 0.452D-02-0.409D-02-0.458D-01-0.105D-01
 Coeff-Com:  0.106D+01
 Coeff:     -0.795D-04 0.484D-03 0.452D-02-0.409D-02-0.458D-01-0.105D-01
 Coeff:      0.106D+01
 Gap=     0.614 Goal=   None    Shift=    0.000
 RMSDP=2.78D-06 MaxDP=3.16D-05 DE=-3.03D-07 OVMax= 6.05D-05

 Cycle   8  Pass 1  IDiag  1:
 E= -154.090952445870     Delta-E=       -0.000000022724 Rises=F Damp=F
 DIIS: error= 3.09D-06 at cycle   8 NSaved=   8.
 NSaved= 8 IEnMin= 8 EnMin= -154.090952445870     IErMin= 8 ErrMin= 3.09D-06
 ErrMax= 3.09D-06  0.00D+00 EMaxC= 1.00D-01 BMatC= 1.15D-09 BMatP= 1.04D-08
 IDIUse=1 WtCom= 1.00D+00 WtEn= 0.00D+00
 Coeff-Com: -0.561D-04 0.996D-04 0.147D-02 0.321D-02-0.382D-02-0.106D+00
 Coeff-Com:  0.355D-01 0.107D+01
 Coeff:     -0.561D-04 0.996D-04 0.147D-02 0.321D-02-0.382D-02-0.106D+00
 Coeff:      0.355D-01 0.107D+01
 Gap=     0.614 Goal=   None    Shift=    0.000
 RMSDP=9.76D-07 MaxDP=1.39D-05 DE=-2.27D-08 OVMax= 2.38D-05

 Cycle   9  Pass 1  IDiag  1:
 E= -154.090952448676     Delta-E=       -0.000000002806 Rises=F Damp=F
 DIIS: error= 7.66D-07 at cycle   9 NSaved=   9.
 NSaved= 9 IEnMin= 9 EnMin= -154.090952448676     IErMin= 9 ErrMin= 7.66D-07
 ErrMax= 7.66D-07  0.00D+00 EMaxC= 1.00D-01 BMatC= 7.27D-11 BMatP= 1.15D-09
 IDIUse=1 WtCom= 1.00D+00 WtEn= 0.00D+00
 Coeff-Com:  0.111D-04-0.434D-04-0.497D-03-0.231D-03 0.355D-02 0.201D-01
 Coeff-Com: -0.890D-01-0.165D+00 0.123D+01
 Coeff:      0.111D-04-0.434D-04-0.497D-03-0.231D-03 0.355D-02 0.201D-01
 Coeff:     -0.890D-01-0.165D+00 0.123D+01
 Gap=     0.614 Goal=   None    Shift=    0.000
 RMSDP=2.85D-07 MaxDP=4.69D-06 DE=-2.81D-09 OVMax= 6.03D-06

 Cycle  10  Pass 1  IDiag  1:
 E= -154.090952448878     Delta-E=       -0.000000000203 Rises=F Damp=F
 DIIS: error= 1.70D-07 at cycle  10 NSaved=  10.
 NSaved=10 IEnMin=10 EnMin= -154.090952448878     IErMin=10 ErrMin= 1.70D-07
 ErrMax= 1.70D-07  0.00D+00 EMaxC= 1.00D-01 BMatC= 2.77D-12 BMatP= 7.27D-11
 IDIUse=1 WtCom= 1.00D+00 WtEn= 0.00D+00
 Coeff-Com:  0.151D-05-0.278D-07-0.223D-04-0.167D-03-0.235D-03 0.429D-02
 Coeff-Com:  0.612D-02-0.397D-01-0.116D+00 0.115D+01
 Coeff:      0.151D-05-0.278D-07-0.223D-04-0.167D-03-0.235D-03 0.429D-02
 Coeff:      0.612D-02-0.397D-01-0.116D+00 0.115D+01
 Gap=     0.614 Goal=   None    Shift=    0.000
 RMSDP=5.21D-08 MaxDP=9.16D-07 DE=-2.03D-10 OVMax= 1.34D-06

 Cycle  11  Pass 1  IDiag  1:
 E= -154.090952448887     Delta-E=       -0.000000000009 Rises=F Damp=F
 DIIS: error= 4.43D-08 at cycle  11 NSaved=  11.
 NSaved=11 IEnMin=11 EnMin= -154.090952448887     IErMin=11 ErrMin= 4.43D-08
 ErrMax= 4.43D-08  0.00D+00 EMaxC= 1.00D-01 BMatC= 1.88D-13 BMatP= 2.77D-12
 IDIUse=1 WtCom= 1.00D+00 WtEn= 0.00D+00
 Coeff-Com: -0.906D-06 0.192D-05 0.277D-04 0.654D-04-0.786D-04-0.225D-02
 Coeff-Com:  0.161D-02 0.197D-01-0.113D-01-0.405D+00 0.140D+01
 Coeff:     -0.906D-06 0.192D-05 0.277D-04 0.654D-04-0.786D-04-0.225D-02
 Coeff:      0.161D-02 0.197D-01-0.113D-01-0.405D+00 0.140D+01
 Gap=     0.614 Goal=   None    Shift=    0.000
 RMSDP=1.51D-08 MaxDP=2.54D-07 DE=-8.70D-12 OVMax= 5.17D-07

 Cycle  12  Pass 1  IDiag  1:
 E= -154.090952448887     Delta-E=       -0.000000000000 Rises=F Damp=F
 DIIS: error= 8.53D-09 at cycle  12 NSaved=  12.
 NSaved=12 IEnMin=12 EnMin= -154.090952448887     IErMin=12 ErrMin= 8.53D-09
 ErrMax= 8.53D-09  0.00D+00 EMaxC= 1.00D-01 BMatC= 8.89D-15 BMatP= 1.88D-13
 IDIUse=1 WtCom= 1.00D+00 WtEn= 0.00D+00
 Coeff-Com:  0.187D-06-0.574D-06-0.687D-05-0.910D-05 0.320D-04 0.437D-03
 Coeff-Com: -0.783D-03-0.367D-02 0.109D-01 0.443D-01-0.342D+00 0.129D+01
 Coeff:      0.187D-06-0.574D-06-0.687D-05-0.910D-05 0.320D-04 0.437D-03
 Coeff:     -0.783D-03-0.367D-02 0.109D-01 0.443D-01-0.342D+00 0.129D+01
 Gap=     0.614 Goal=   None    Shift=    0.000
 RMSDP=3.61D-09 MaxDP=5.37D-08 DE=-1.71D-13 OVMax= 1.27D-07

 SCF Done:  E(RHF) =  -154.090952449     A.U. after   12 cycles
            NFock= 12  Conv=0.36D-08     -V/T= 2.0009
 KE= 1.539466881621D+02 PE=-5.259267663315D+02 EE= 1.358650603526D+02
 Leave Link  502 at Thu Dec 16 11:32:12 2021, MaxMem=   536870912 cpu:               1.6 elap:               0.5
 (Enter /opt/gaussian/g16/sse4/g16/l801.exe)
 Windowed orbitals will be sorted by symmetry type.
 ExpMin= 1.22D-01 ExpMax= 1.17D+04 ExpMxC= 4.01D+02 IAcc=3 IRadAn=         5 AccDes= 0.00D+00
 HarFok:  IExCor=  205 AccDes= 0.00D+00 IRadAn=         5 IDoV=-2 UseB2=F ITyADJ=14
 ICtDFT= 12500011 ScaDFX=  1.000000  1.000000  1.000000  1.000000
 Largest valence mixing into a core orbital is  1.06D-04
 Largest core mixing into a valence orbital is  4.24D-05
 Range of M.O.s used for correlation:     4    72
 NBasis=    72 NAE=    13 NBE=    13 NFC=     3 NFV=     0
 NROrb=     69 NOA=    10 NOB=    10 NVA=    59 NVB=    59
 Leave Link  801 at Thu Dec 16 11:32:12 2021, MaxMem=   536870912 cpu:               0.5 elap:               0.1
 (Enter /opt/gaussian/g16/sse4/g16/l804.exe)
 Closed-shell transformation, MDV=   536870912 ITran=4 ISComp=1.
 Unit  1 TFree=        167900 TCopy=        312635.
 Semi-Direct transformation.
 ModeAB=           2 MOrb=            10 LenV=     536585389
 LASXX=      1462170 LTotXX=     1462170 LenRXX=     1462170
 LTotAB=     1525225 MaxLAS=     1966500 LenRXY=     1966500
 NonZer=     2924340 LenScr=     5114368 LnRSAI=           0
 LnScr1=           0 LExtra=           0 Total=      8543038
 MaxDsk=          -1 SrtSym=           F ITran=            4
 DoSDTr:  NPSUse=  4
 JobTyp=0 Pass  1:  I=   1 to  10.
 (rs|ai) integrals will be sorted in core.
 Complete sort for first half transformation.
 First half transformation complete.
 Begin second half transformation for I=  10.
 Begin second half transformation for I=  10.
 Complete sort for second half transformation.
 Second half transformation complete.
 SymMOI:  orbitals are not symmetric.
 Spin components of T(2) and E(2):
     alpha-alpha T2 =       0.1734222338D-01 E2=     -0.5672454399D-01
     alpha-beta  T2 =       0.1108820464D+00 E2=     -0.3678984818D+00
     beta-beta   T2 =       0.1734222338D-01 E2=     -0.5672454399D-01
 ANorm=    0.1070311400D+01
 E2 =    -0.4813475697D+00 EUMP2 =    -0.15457230001863D+03
 Leave Link  804 at Thu Dec 16 11:32:14 2021, MaxMem=   536870912 cpu:               2.2 elap:               1.2
 (Enter /opt/gaussian/g16/sse4/g16/l913.exe)
 CIDS:  MDV=   536870912.
 Frozen-core window:  NFC=   3 NFV=   0.
 IFCWin=0 IBDFC=1 NFBD=     0     0 NFCmp=     0     0 NFFFC=     0     0
 Using DD3R+UMP44R for 1st iteration.
 Using DD4RQ for 2nd and later iterations.
 Keep R2 and R3 ints in memory in canonical form, NReq=7795396.
 FoFCou: FMM=F IPFlag=           0 FMFlag=           0 FMFlg1=           0
         NFxFlg=           0 DoJE=F BraDBF=F KetDBF=F FulRan=T
         wScrn=  0.000000 ICntrl=       600 IOpCl=  0 I1Cent=           0 NGrid=           0
         NMat0=    1 NMatS0=   2628 NMatT0=    0 NMatD0=    1 NMtDS0=    0 NMtDT0=    0
 Symmetry not used in FoFCou.
 Two-electron integral symmetry not used.
 CIDS: In Core Option IDoMem=           1.
 Coupled Cluster theory with single and double substitutions
 ===========================================================
 Iterations=  50 Convergence= 0.100D-07
 Produce multiple copies of IABC intergrals
 Iteration Nr.   1
 **********************
 DD1Dir will call FoFMem   1 times, MxPair=       110
 NAB=    55 NAA=     0 NBB=     0.
 MP4(R+Q)=  0.75230898D-02
 Maximum subspace dimension=  5
 A-vector RMS=  2.6543614D-03 Max=  7.5567259D-03 conv= 1.00D-06.
 RLE energy=       -0.5058834448
 E3=       -0.30948878D-01        EUMP3=      -0.15460324890D+03
 E4(DQ)=   -0.36932043D-02        UMP4(DQ)=   -0.15460694210D+03
 E4(SDQ)=  -0.64214912D-02        UMP4(SDQ)=  -0.15460967039D+03
 VARIATIONAL ENERGIES WITH THE FIRST-ORDER WAVEFUNCTION:
 DE(Corr)= -0.50469344     E(Corr)=     -154.59564589    
 NORM(A)=   0.10795510D+01
 Iteration Nr.   2
 **********************
 DD1Dir will call FoFMem   1 times, MxPair=       110
 NAB=    55 NAA=     0 NBB=     0.
 A-vector RMS=  4.0374224D-04 Max=  1.1448755D-03 conv= 1.00D-06.
 RLE energy=       -0.5183735348
 DE(Corr)= -0.51612061     E(CORR)=     -154.60707306     Delta=-1.14D-02
 NORM(A)=   0.10848565D+01
 Iteration Nr.   3
 **********************
 DD1Dir will call FoFMem   1 times, MxPair=       110
 NAB=    55 NAA=     0 NBB=     0.
 A-vector RMS=  3.5477903D-04 Max=  1.2691722D-03 conv= 1.00D-06.
 RLE energy=       -0.5189864477
 DE(Corr)= -0.51826994     E(CORR)=     -154.60922239     Delta=-2.15D-03
 NORM(A)=   0.10856908D+01
 Iteration Nr.   4
 **********************
 DD1Dir will call FoFMem   1 times, MxPair=       110
 NAB=    55 NAA=     0 NBB=     0.
 A-vector RMS=  6.7889643D-05 Max=  1.9946832D-04 conv= 1.00D-06.
 RLE energy=       -0.5190945773
 DE(Corr)= -0.51903414     E(CORR)=     -154.60998659     Delta=-7.64D-04
 NORM(A)=   0.10858578D+01
 Iteration Nr.   5
 **********************
 DD1Dir will call FoFMem   1 times, MxPair=       110
 NAB=    55 NAA=     0 NBB=     0.
 A-vector RMS=  3.4980003D-05 Max=  1.8605721D-04 conv= 1.00D-06.
 RLE energy=       -0.5191189807
 DE(Corr)= -0.51910607     E(CORR)=     -154.61005852     Delta=-7.19D-05
 NORM(A)=   0.10858907D+01
 Iteration Nr.   6
 **********************
 DD1Dir will call FoFMem   1 times, MxPair=       110
 NAB=    55 NAA=     0 NBB=     0.
 A-vector RMS=  9.1213164D-06 Max=  3.5362987D-05 conv= 1.00D-06.
 RLE energy=       -0.5191111321
 DE(Corr)= -0.51911414     E(CORR)=     -154.61006659     Delta=-8.07D-06
 NORM(A)=   0.10858916D+01
 Iteration Nr.   7
 **********************
 DD1Dir will call FoFMem   1 times, MxPair=       110
 NAB=    55 NAA=     0 NBB=     0.
 A-vector RMS=  4.2796649D-06 Max=  2.3422369D-05 conv= 1.00D-06.
 RLE energy=       -0.5191114139
 DE(Corr)= -0.51911410     E(CORR)=     -154.61006655     Delta= 3.68D-08
 NORM(A)=   0.10858925D+01
 Iteration Nr.   8
 **********************
 DD1Dir will call FoFMem   1 times, MxPair=       110
 NAB=    55 NAA=     0 NBB=     0.
 A-vector RMS=  1.6529742D-06 Max=  8.4731918D-06 conv= 1.00D-06.
 RLE energy=       -0.5191130738
 DE(Corr)= -0.51911332     E(CORR)=     -154.61006577     Delta= 7.87D-07
 NORM(A)=   0.10858937D+01
 Iteration Nr.   9
 **********************
 DD1Dir will call FoFMem   1 times, MxPair=       110
 NAB=    55 NAA=     0 NBB=     0.
 A-vector RMS=  5.1168609D-07 Max=  2.6079676D-06 conv= 1.00D-06.
 RLE energy=       -0.5191135035
 DE(Corr)= -0.51911355     E(CORR)=     -154.61006600     Delta=-2.34D-07
 NORM(A)=   0.10858941D+01
 Iteration Nr.  10
 **********************
 DD1Dir will call FoFMem   1 times, MxPair=       110
 NAB=    55 NAA=     0 NBB=     0.
 A-vector RMS=  1.9532025D-07 Max=  1.3654958D-06 conv= 1.00D-06.
 RLE energy=       -0.5191137950
 DE(Corr)= -0.51911372     E(CORR)=     -154.61006617     Delta=-1.73D-07
 NORM(A)=   0.10858944D+01
 Iteration Nr.  11
 **********************
 DD1Dir will call FoFMem   1 times, MxPair=       110
 NAB=    55 NAA=     0 NBB=     0.
 A-vector RMS=  6.3141012D-08 Max=  3.0466528D-07 conv= 1.00D-06.
 RLE energy=       -0.5191138657
 DE(Corr)= -0.51911383     E(CORR)=     -154.61006628     Delta=-1.08D-07
 NORM(A)=   0.10858945D+01
 Iteration Nr.  12
 **********************
 DD1Dir will call FoFMem   1 times, MxPair=       110
 NAB=    55 NAA=     0 NBB=     0.
 A-vector RMS=  2.3950590D-08 Max=  1.7343579D-07 conv= 1.00D-06.
 RLE energy=       -0.5191138978
 DE(Corr)= -0.51911388     E(CORR)=     -154.61006633     Delta=-5.11D-08
 NORM(A)=   0.10858945D+01
 Iteration Nr.  13
 **********************
 DD1Dir will call FoFMem   1 times, MxPair=       110
 NAB=    55 NAA=     0 NBB=     0.
 A-vector RMS=  9.5419276D-09 Max=  4.6697023D-08 conv= 1.00D-06.
 RLE energy=       -0.5191139033
 DE(Corr)= -0.51911390     E(CORR)=     -154.61006635     Delta=-1.50D-08
 NORM(A)=   0.10858945D+01
 Iteration Nr.  14
 **********************
 DD1Dir will call FoFMem   1 times, MxPair=       110
 NAB=    55 NAA=     0 NBB=     0.
 A-vector RMS=  4.5685048D-09 Max=  3.7066081D-08 conv= 1.00D-06.
 RLE energy=       -0.5191139049
 DE(Corr)= -0.51911390     E(CORR)=     -154.61006635     Delta=-5.28D-09
 NORM(A)=   0.10858945D+01
 CI/CC converged in   14 iterations to DelEn=-5.28D-09 Conv= 1.00D-08 ErrA1= 4.57D-09 Conv= 1.00D-06
 Wavefunction amplitudes converged. E(Corr)=     -154.61006635    
 Largest amplitude= 1.81D-02

 Z-amplitude iterations

 Iteration Nr.   1
 **********************
 DD1Dir will call FoFMem   1 times, MxPair=       110
 NAB=    55 NAA=     0 NBB=     0.
 A-vector RMS=  8.8346303D-04 Max=  2.8893225D-03 conv= 1.00D-06.
 RLE energy=       -0.5191194110
 DE(Z)= -0.50854132     E(Z)=     -154.59949377     Delta= 1.06D-02
 NORM(A)=   0.10858966D+01
 Iteration Nr.   2
 **********************
 DD1Dir will call FoFMem   1 times, MxPair=       110
 NAB=    55 NAA=     0 NBB=     0.
 A-vector RMS=  8.8390771D-04 Max=  2.8907629D-03 conv= 1.00D-06.
 RLE energy=       -0.5191122064
 DE(Z)= -0.50854208     E(Z)=     -154.59949452     Delta=-7.56D-07
 NORM(A)=   0.10858939D+01
 Iteration Nr.   3
 **********************
 DD1Dir will call FoFMem   1 times, MxPair=       110
 NAB=    55 NAA=     0 NBB=     0.
 A-vector RMS=  8.8334785D-04 Max=  2.8889546D-03 conv= 1.00D-06.
 RLE energy=       -0.5191144837
 DE(Z)= -0.50854111     E(Z)=     -154.59949356     Delta= 9.68D-07
 NORM(A)=   0.10858948D+01
 Iteration Nr.   4
 **********************
 DD1Dir will call FoFMem   1 times, MxPair=       110
 NAB=    55 NAA=     0 NBB=     0.
 A-vector RMS=  8.8350523D-04 Max=  2.8894598D-03 conv= 1.00D-06.
 RLE energy=       -0.5191145023
 DE(Z)= -0.50854139     E(Z)=     -154.59949384     Delta=-2.86D-07
 NORM(A)=   0.10858948D+01
 Iteration Nr.   5
 **********************
 DD1Dir will call FoFMem   1 times, MxPair=       110
 NAB=    55 NAA=     0 NBB=     0.
 A-vector RMS=  8.8350658D-04 Max=  2.8894642D-03 conv= 1.00D-06.
 RLE energy=       -0.5069871401
 DE(Z)= -0.50854140     E(Z)=     -154.59949385     Delta=-2.38D-09
 NORM(A)=   0.10813532D+01
 Iteration Nr.   6
 **********************
 DD1Dir will call FoFMem   1 times, MxPair=       110
 NAB=    55 NAA=     0 NBB=     0.
 A-vector RMS=  1.4787039D-05 Max=  4.7039054D-05 conv= 1.00D-06.
 RLE energy=       -0.5069885154
 DE(Z)= -0.50698974     E(Z)=     -154.59794219     Delta= 1.55D-03
 NORM(A)=   0.10813366D+01
 Iteration Nr.   7
 **********************
 DD1Dir will call FoFMem   1 times, MxPair=       110
 NAB=    55 NAA=     0 NBB=     0.
 A-vector RMS=  8.0293948D-06 Max=  4.0866343D-05 conv= 1.00D-06.
 RLE energy=       -0.5069908977
 DE(Z)= -0.50698942     E(Z)=     -154.59794187     Delta= 3.22D-07
 NORM(A)=   0.10813331D+01
 Iteration Nr.   8
 **********************
 DD1Dir will call FoFMem   1 times, MxPair=       110
 NAB=    55 NAA=     0 NBB=     0.
 A-vector RMS=  2.2903295D-06 Max=  1.0308318D-05 conv= 1.00D-06.
 RLE energy=       -0.5069905897
 DE(Z)= -0.50698958     E(Z)=     -154.59794203     Delta=-1.63D-07
 NORM(A)=   0.10813318D+01
 Iteration Nr.   9
 **********************
 DD1Dir will call FoFMem   1 times, MxPair=       110
 NAB=    55 NAA=     0 NBB=     0.
 A-vector RMS=  1.1344146D-06 Max=  6.6000879D-06 conv= 1.00D-06.
 RLE energy=       -0.5069902433
 DE(Z)= -0.50699019     E(Z)=     -154.59794264     Delta=-6.07D-07
 NORM(A)=   0.10813317D+01
 Iteration Nr.  10
 **********************
 DD1Dir will call FoFMem   1 times, MxPair=       110
 NAB=    55 NAA=     0 NBB=     0.
 A-vector RMS=  2.4762364D-07 Max=  1.2873259D-06 conv= 1.00D-06.
 RLE energy=       -0.5069904009
 DE(Z)= -0.50699035     E(Z)=     -154.59794280     Delta=-1.60D-07
 NORM(A)=   0.10813317D+01
 Iteration Nr.  11
 **********************
 DD1Dir will call FoFMem   1 times, MxPair=       110
 NAB=    55 NAA=     0 NBB=     0.
 A-vector RMS=  1.1065965D-07 Max=  4.1687229D-07 conv= 1.00D-06.
 RLE energy=       -0.5069902786
 DE(Z)= -0.50699027     E(Z)=     -154.59794272     Delta= 8.04D-08
 NORM(A)=   0.10813317D+01
 Iteration Nr.  12
 **********************
 DD1Dir will call FoFMem   1 times, MxPair=       110
 NAB=    55 NAA=     0 NBB=     0.
 A-vector RMS=  4.6269334D-08 Max=  2.8009188D-07 conv= 1.00D-06.
 RLE energy=       -0.5069902545
 DE(Z)= -0.50699027     E(Z)=     -154.59794272     Delta=-1.06D-09
 NORM(A)=   0.10813316D+01
 CI/CC converged in   12 iterations to DelEn=-1.06D-09 Conv= 1.00D-08 ErrA1= 4.63D-08 Conv= 1.00D-06
 Z-amplitudes converged.
 Discarding MO integrals.
 Leave Link  913 at Thu Dec 16 11:32:36 2021, MaxMem=   536870912 cpu:              84.1 elap:              21.6
 (Enter /opt/gaussian/g16/sse4/g16/l1111.exe)
 Unit  1 TFree=       3855013 TCopy=       1743024.
 Selected functions:
 Compute CCSD 2PDM.
 Form Post-SCF non-separable gradient here.
 IO1PDM=    0 IOW=    0 IO2PDM=    0.
 MDV=     536870912.
 Frozen-core window:  NFC=   3 NFV=   0.
 Leave Link 1111 at Thu Dec 16 11:32:53 2021, MaxMem=   536870912 cpu:              67.3 elap:              16.9
 (Enter /opt/gaussian/g16/sse4/g16/l1002.exe)
 Minotr:  Closed shell wavefunction.
          Computing CCSD/QCISD derivatives.
          Using Z-Vector for PSCF gradient.
          Skipping F1 and S1 gradient terms here.
          IDoAtm=111111111
          Frozen-core window.
          Direct CPHF calculation.
          Differentiating once with respect to electric field.
                with respect to dipole field.
          Differentiating once with respect to nuclear coordinates.
          Requested convergence is 1.0D-10 RMS, and 1.0D-09 maximum.
          NewPWx=F KeepS1=T KeepF1=T KeepIn=T MapXYZ=F SortEE=F KeepMc=T.
 Keep R1 ints in memory in canonical form, NReq=4338649.
 FoFCou: FMM=F IPFlag=           0 FMFlag=           0 FMFlg1=           0
         NFxFlg=           0 DoJE=F BraDBF=F KetDBF=F FulRan=T
         wScrn=  0.000000 ICntrl=       600 IOpCl=  0 I1Cent=           0 NGrid=           0
         NMat0=    1 NMatS0=   2628 NMatT0=    0 NMatD0=    1 NMtDS0=    0 NMtDT0=    0
 Symmetry not used in FoFCou.
 Two-electron integral symmetry not used.
          MDV=     536870912 using IRadAn=       5.
          Solving linear equations separately, MaxMat=       0.
          There are     1 degrees of freedom in the 1st order CPHF.  IDoFFX=0 NUNeed=     1.
 LinEq1:  Iter=  0 NonCon=     1 RMS=3.28D-03 Max=1.98D-02 NDo=     1
 AX will form     1 AO Fock derivatives at one time.
 LinEq1:  Iter=  1 NonCon=     1 RMS=7.62D-04 Max=4.48D-03 NDo=     1
 LinEq1:  Iter=  2 NonCon=     1 RMS=2.05D-04 Max=1.06D-03 NDo=     1
 LinEq1:  Iter=  3 NonCon=     1 RMS=6.02D-05 Max=3.17D-04 NDo=     1
 LinEq1:  Iter=  4 NonCon=     1 RMS=1.73D-05 Max=1.58D-04 NDo=     1
 LinEq1:  Iter=  5 NonCon=     1 RMS=3.27D-06 Max=2.11D-05 NDo=     1
 LinEq1:  Iter=  6 NonCon=     1 RMS=5.89D-07 Max=2.85D-06 NDo=     1
 LinEq1:  Iter=  7 NonCon=     1 RMS=1.42D-07 Max=8.85D-07 NDo=     1
 LinEq1:  Iter=  8 NonCon=     1 RMS=3.65D-08 Max=2.05D-07 NDo=     1
 LinEq1:  Iter=  9 NonCon=     1 RMS=7.71D-09 Max=4.95D-08 NDo=     1
 LinEq1:  Iter= 10 NonCon=     1 RMS=1.53D-09 Max=1.34D-08 NDo=     1
 LinEq1:  Iter= 11 NonCon=     1 RMS=2.28D-10 Max=2.07D-09 NDo=     1
 LinEq1:  Iter= 12 NonCon=     0 RMS=4.64D-11 Max=3.16D-10 NDo=     1
 Linear equations converged to 1.000D-10 1.000D-09 after    12 iterations.
 End of Minotr F.D. properties file   721 does not exist.
 End of Minotr F.D. properties file   722 does not exist.
 End of Minotr F.D. properties file   788 does not exist.
 Leave Link 1002 at Thu Dec 16 11:32:58 2021, MaxMem=   536870912 cpu:               2.7 elap:               1.5
 (Enter /opt/gaussian/g16/sse4/g16/l601.exe)
 Copying SCF densities to generalized density rwf, IOpCl= 0 IROHF=0.

 **********************************************************************

            Population analysis using the SCF density.

 **********************************************************************

 Orbital symmetries:
       Occupied  (A) (A) (A) (A) (A) (A) (A) (A) (A) (A) (A) (A)
                 (A)
       Virtual   (A) (A) (A) (A) (A) (A) (A) (A) (A) (A) (A) (A)
                 (A) (A) (A) (A) (A) (A) (A) (A) (A) (A) (A) (A)
                 (A) (A) (A) (A) (A) (A) (A) (A) (A) (A) (A) (A)
                 (A) (A) (A) (A) (A) (A) (A) (A) (A) (A) (A) (A)
                 (A) (A) (A) (A) (A) (A) (A) (A) (A) (A) (A)
 The electronic state is 1-A.
 Alpha  occ. eigenvalues --  -20.54719 -11.27604 -11.22386  -1.34952  -1.01003
 Alpha  occ. eigenvalues --   -0.84361  -0.67884  -0.62075  -0.60261  -0.53879
 Alpha  occ. eigenvalues --   -0.52300  -0.47560  -0.43515
 Alpha virt. eigenvalues --    0.17864   0.21715   0.23380   0.25532   0.26685
 Alpha virt. eigenvalues --    0.28647   0.38145   0.40070   0.59603   0.61503
 Alpha virt. eigenvalues --    0.66562   0.72939   0.75018   0.81035   0.85028
 Alpha virt. eigenvalues --    0.88181   0.88686   0.89711   0.91038   0.92955
 Alpha virt. eigenvalues --    1.11923   1.14071   1.16734   1.27850   1.32821
 Alpha virt. eigenvalues --    1.38222   1.46034   1.50817   1.57005   1.65060
 Alpha virt. eigenvalues --    1.68669   1.74372   1.85357   1.87558   1.89784
 Alpha virt. eigenvalues --    1.93158   1.94235   1.95386   1.97453   2.04664
 Alpha virt. eigenvalues --    2.09125   2.15711   2.26292   2.27617   2.34730
 Alpha virt. eigenvalues --    2.42094   2.51036   2.52311   2.54270   2.75138
 Alpha virt. eigenvalues --    2.76842   2.83079   2.88208   2.91636   3.31609
 Alpha virt. eigenvalues --    3.40013   3.45643   3.63045   4.09470
          Condensed to atoms (all electrons):
               1          2          3          4          5          6
     1  C    4.572130   0.437323  -0.046821   0.389875   0.402435   0.402944
     2  C    0.437323   4.393438   0.305585  -0.024081  -0.028293  -0.026841
     3  O   -0.046821   0.305585   7.824371   0.004133  -0.000603   0.003716
     4  H    0.389875  -0.024081   0.004133   0.648271  -0.022219  -0.020325
     5  H    0.402435  -0.028293  -0.000603  -0.022219   0.657248  -0.030791
     6  H    0.402944  -0.026841   0.003716  -0.020325  -0.030791   0.629641
     7  H   -0.039584   0.410018  -0.031404  -0.000308  -0.009247   0.008546
     8  H   -0.031895   0.407971  -0.021221  -0.002281   0.007432  -0.008799
     9  H   -0.004139  -0.047821   0.358203  -0.000042   0.005164  -0.001184
               7          8          9
     1  C   -0.039584  -0.031895  -0.004139
     2  C    0.410018   0.407971  -0.047821
     3  O   -0.031404  -0.021221   0.358203
     4  H   -0.000308  -0.002281  -0.000042
     5  H   -0.009247   0.007432   0.005164
     6  H    0.008546  -0.008799  -0.001184
     7  H    0.692893  -0.039026  -0.006450
     8  H   -0.039026   0.641838   0.007645
     9  H   -0.006450   0.007645   0.524933
 Mulliken charges:
               1
     1  C   -0.082270
     2  C    0.172700
     3  O   -0.395959
     4  H    0.026977
     5  H    0.018873
     6  H    0.043092
     7  H    0.014561
     8  H    0.038335
     9  H    0.163690
 Sum of Mulliken charges =  -0.00000
 Mulliken charges with hydrogens summed into heavy atoms:
               1
     1  C    0.006673
     2  C    0.225596
     3  O   -0.232269
 Electronic spatial extent (au):  <R**2>=            191.5950
 Charge=             -0.0000 electrons
 Dipole moment (field-independent basis, Debye):
    X=             -1.2718    Y=             -0.1209    Z=              1.2166  Tot=              1.7642
 Quadrupole moment (field-independent basis, Debye-Ang):
   XX=            -22.5585   YY=            -18.3333   ZZ=            -19.0395
   XY=             -0.9471   XZ=              1.8394   YZ=             -1.4923
 Traceless Quadrupole moment (field-independent basis, Debye-Ang):
   XX=             -2.5814   YY=              1.6438   ZZ=              0.9375
   XY=             -0.9471   XZ=              1.8394   YZ=             -1.4923
 Octapole moment (field-independent basis, Debye-Ang**2):
  XXX=              2.1852  YYY=             -2.3507  ZZZ=              0.3620  XYY=              3.4090
  XXY=             -0.9579  XXZ=              2.1664  XZZ=              2.6355  YZZ=             -0.9711
  YYZ=              0.9252  XYZ=             -1.7623
 Hexadecapole moment (field-independent basis, Debye-Ang**3):
 XXXX=           -157.2172 YYYY=            -55.7590 ZZZZ=            -32.9880 XXXY=             -6.3308
 XXXZ=              2.8115 YYYX=             -4.3675 YYYZ=             -2.6283 ZZZX=              1.5212
 ZZZY=             -1.0351 XXYY=            -32.4401 XXZZ=            -30.6222 YYZZ=            -13.1728
 XXYZ=             -1.9548 YYXZ=              1.4406 ZZXY=             -0.8015
 N-N= 8.202406536796D+01 E-N=-5.259267663067D+02  KE= 1.539466881621D+02
 No NMR shielding tensors so no spin-rotation constants.
 Leave Link  601 at Thu Dec 16 11:32:58 2021, MaxMem=   536870912 cpu:               0.5 elap:               0.1
 (Enter /opt/gaussian/g16/sse4/g16/l701.exe)
 ... and contract with generalized density number  7.
 Compute integral first derivatives.
 Leave Link  701 at Thu Dec 16 11:32:58 2021, MaxMem=   536870912 cpu:               0.5 elap:               0.1
 (Enter /opt/gaussian/g16/sse4/g16/l702.exe)
 L702 exits ... SP integral derivatives will be done elsewhere.
 Leave Link  702 at Thu Dec 16 11:32:58 2021, MaxMem=   536870912 cpu:               0.1 elap:               0.0
 (Enter /opt/gaussian/g16/sse4/g16/l703.exe)
 Integral derivatives from FoFJK, PRISM(SPDF).
 Compute integral first derivatives, UseDBF=F ICtDFT=           0.
 Calling FoFJK, ICntrl=  10002127 FMM=F ISym2X=0 I1Cent= 0 IOpClX= 0 NMat=1 NMatS=1 NMatT=0.
 FoFJK:  IHMeth= 1 ICntrl=10002127 DoSepK=F KAlg= 0 I1Cent=           0 FoldK=F
 IRaf=         0 NMat=       1 IRICut=       1 DoRegI=T DoRafI=F ISym2E= 0 IDoP0=0 IntGTp=1.
 FoFCou: FMM=F IPFlag=           0 FMFlag=      100000 FMFlg1=         800
         NFxFlg=           0 DoJE=F BraDBF=F KetDBF=F FulRan=T
         wScrn=  0.000000 ICntrl=  10002127 IOpCl=  0 I1Cent=           0 NGrid=           0
         NMat0=    1 NMatS0=      1 NMatT0=    0 NMatD0=    1 NMtDS0=    0 NMtDT0=    0
 Symmetry not used in FoFCou.
 Leave Link  703 at Thu Dec 16 11:32:59 2021, MaxMem=   536870912 cpu:               1.6 elap:               0.4
 (Enter /opt/gaussian/g16/sse4/g16/l716.exe)
 Dipole        =-4.28970365D-01-6.62201720D-02 4.44005754D-01
 ***** Axes restored to original set *****
 -------------------------------------------------------------------
 Center     Atomic                   Forces (Hartrees/Bohr)
 Number     Number              X              Y              Z
 -------------------------------------------------------------------
      1        6          -0.001060957   -0.002172385    0.003787087
      2        6          -0.004442365    0.009482706   -0.014075331
      3        8           0.005749506    0.008363322   -0.001305613
      4        1          -0.004858195   -0.006522531    0.002985310
      5        1          -0.002534767   -0.002250237   -0.007645265
      6        1          -0.000906059    0.005128202    0.004196370
      7        1           0.001917411   -0.012249138   -0.000537377
      8        1           0.004681647    0.002712448    0.004827913
      9        1           0.001453779   -0.002492387    0.007766907
 -------------------------------------------------------------------
 Cartesian Forces:  Max     0.014075331 RMS     0.005765898
 Leave Link  716 at Thu Dec 16 11:32:59 2021, MaxMem=   536870912 cpu:               0.1 elap:               0.0
 (Enter /opt/gaussian/g16/sse4/g16/l103.exe)

 GradGradGradGradGradGradGradGradGradGradGradGradGradGradGradGradGradGrad
 Berny optimization.
 FormGI is forming the generalized inverse of G from B-inverse, IUseBI=4.
 Internal  Forces:  Max     0.010810294 RMS     0.004897507
 Search for a local minimum.
 Step number   1 out of a maximum of   43
 All quantities printed in internal units (Hartrees-Bohrs-Radians)
 RMS Force = .48975D-02 SwitMx=.10000D-02 MixMth= 1
 Mixed Optimization -- RFO/linear search
 Second derivative matrix not updated -- first step.
 ITU=  0
     Eigenvalues ---    0.00573   0.01425   0.05213   0.05649   0.05770
     Eigenvalues ---    0.05827   0.11505   0.13798   0.16000   0.16000
     Eigenvalues ---    0.16000   0.16000   0.22019   0.30892   0.34245
     Eigenvalues ---    0.34247   0.34331   0.34370   0.34403   0.42433
     Eigenvalues ---    0.52888
 RFO step:  Lambda=-3.75584478D-03 EMin= 5.72710188D-03
 Linear search not attempted -- first point.
 Iteration  1 RMS(Cart)=  0.03946937 RMS(Int)=  0.00095229
 Iteration  2 RMS(Cart)=  0.00082397 RMS(Int)=  0.00060480
 Iteration  3 RMS(Cart)=  0.00000053 RMS(Int)=  0.00060480
 ITry= 1 IFail=0 DXMaxC= 9.29D-02 DCOld= 1.00D+10 DXMaxT= 3.00D-01 DXLimC= 3.00D+00 Rises=F
 Variable       Old X    -DE/DX   Delta X   Delta X   Delta X     New X
                                 (Linear)    (Quad)   (Total)
    R1        2.86219   0.00939   0.00000   0.03002   0.03002   2.89221
    R2        2.06655   0.00839   0.00000   0.02413   0.02413   2.09068
    R3        2.06918   0.00803   0.00000   0.02319   0.02319   2.09237
    R4        2.06915   0.00642   0.00000   0.01855   0.01855   2.08769
    R5        2.68376   0.00426   0.00000   0.00994   0.00994   2.69370
    R6        2.06775   0.01081   0.00000   0.03115   0.03115   2.09890
    R7        2.06711   0.00618   0.00000   0.01778   0.01778   2.08488
    R8        1.83759  -0.00774   0.00000  -0.01454  -0.01454   1.82305
    A1        1.93535   0.00303   0.00000   0.01638   0.01642   1.95178
    A2        1.93211  -0.00067   0.00000  -0.00409  -0.00408   1.92803
    A3        1.93034  -0.00220   0.00000  -0.01132  -0.01130   1.91904
    A4        1.89836  -0.00175   0.00000  -0.01466  -0.01464   1.88372
    A5        1.90012  -0.00044   0.00000  -0.00266  -0.00261   1.89751
    A6        1.86580   0.00197   0.00000   0.01615   0.01615   1.88195
    A7        1.91948   0.00995   0.00000   0.05105   0.05024   1.96972
    A8        1.93772  -0.00472   0.00000  -0.01251  -0.01450   1.92322
    A9        1.92834   0.00020   0.00000  -0.00988  -0.00952   1.91882
   A10        1.89756   0.00198   0.00000   0.05360   0.05263   1.95019
   A11        1.88794  -0.00765   0.00000  -0.06230  -0.06159   1.82635
   A12        1.89168   0.00002   0.00000  -0.02135  -0.02112   1.87056
   A13        1.87703  -0.00542   0.00000  -0.03309  -0.03309   1.84394
    D1       -3.12564   0.00289   0.00000   0.05319   0.05330  -3.07234
    D2        1.05667  -0.00310   0.00000  -0.03941  -0.03936   1.01731
    D3       -1.04270  -0.00015   0.00000   0.00219   0.00204  -1.04066
    D4        1.04883   0.00351   0.00000   0.06349   0.06360   1.11244
    D5       -1.05205  -0.00247   0.00000  -0.02911  -0.02906  -1.08110
    D6        3.13177   0.00047   0.00000   0.01249   0.01235  -3.13907
    D7       -1.01589   0.00288   0.00000   0.05318   0.05327  -0.96262
    D8       -3.11677  -0.00311   0.00000  -0.03943  -0.03939   3.12703
    D9        1.06705  -0.00016   0.00000   0.00217   0.00201   1.06906
   D10       -1.04501  -0.00014   0.00000  -0.02790  -0.02951  -1.07453
   D11        1.07997   0.00151   0.00000   0.02267   0.02443   1.10439
   D12        3.13073  -0.00161   0.00000  -0.00787  -0.00801   3.12272
         Item               Value     Threshold  Converged?
 Maximum Force            0.010810     0.000450     NO 
 RMS     Force            0.004898     0.000300     NO 
 Maximum Displacement     0.092944     0.001800     NO 
 RMS     Displacement     0.039118     0.001200     NO 
 Predicted change in Energy=-1.955437D-03
 Lowest energy point so far.  Saving SCF results.
 GradGradGradGradGradGradGradGradGradGradGradGradGradGradGradGradGradGrad

 Leave Link  103 at Thu Dec 16 11:32:59 2021, MaxMem=   536870912 cpu:               0.0 elap:               0.0
 (Enter /opt/gaussian/g16/sse4/g16/l202.exe)
                          Input orientation:                          
 ---------------------------------------------------------------------
 Center     Atomic      Atomic             Coordinates (Angstroms)
 Number     Number       Type             X           Y           Z
 ---------------------------------------------------------------------
      1          6           0        0.992939    0.067639   -0.057558
      2          6           0        2.522754    0.089393   -0.097584
      3          8           0        3.043918    1.266281   -0.710132
      4          1           0        0.608117   -0.817663    0.482943
      5          1           0        0.579017    0.046664   -1.084301
      6          1           0        0.615854    0.978761    0.440593
      7          1           0        2.906677   -0.832189   -0.584328
      8          1           0        2.925790    0.107590    0.929277
      9          1           0        2.713714    1.255954   -1.616520
 ---------------------------------------------------------------------
                    Distance matrix (angstroms):
                    1          2          3          4          5
     1  C    0.000000
     2  C    1.530492   0.000000
     3  O    2.463557   1.425445   0.000000
     4  H    1.106340   2.196724   3.420436   0.000000
     5  H    1.107237   2.180263   2.775465   1.790018   0.000000
     6  H    1.104759   2.171837   2.702283   1.796940   1.787586
     7  H    2.179350   1.110689   2.106713   2.534296   2.537786
     8  H    2.170564   1.103273   2.011016   2.535135   3.092822
     9  H    2.608356   1.924707   0.964718   3.625075   2.510492
                    6          7          8          9
     6  H    0.000000
     7  H    3.094813   0.000000
     8  H    2.516655   1.781726   0.000000
     9  H    2.951197   2.337305   2.800857   0.000000
 Stoichiometry    C2H6O
 Framework group  C1[X(C2H6O)]
 Deg. of freedom    21
 Full point group                 C1      NOp   1
 RotChk:  IX=0 Diff= 5.72D-02
 Largest Abelian subgroup         C1      NOp   1
 Largest concise Abelian subgroup C1      NOp   1
                         Standard orientation:                         
 ---------------------------------------------------------------------
 Center     Atomic      Atomic             Coordinates (Angstroms)
 Number     Number       Type             X           Y           Z
 ---------------------------------------------------------------------
      1          6           0       -1.218919   -0.236891   -0.021690
      2          6           0        0.087865    0.556806    0.047353
      3          8           0        1.242980   -0.263859   -0.107928
      4          1           0       -2.104764    0.423861    0.030035
      5          1           0       -1.280254   -0.955595    0.818355
      6          1           0       -1.260803   -0.812973   -0.963427
      7          1           0        0.127399    1.149347    0.985949
      8          1           0        0.138743    1.271561   -0.791544
      9          1           0        1.222167   -0.884820    0.630080
 ---------------------------------------------------------------------
 Rotational constants (GHZ):          34.0742561           9.1062013           8.0548589
 Leave Link  202 at Thu Dec 16 11:32:59 2021, MaxMem=   536870912 cpu:               0.0 elap:               0.0
 (Enter /opt/gaussian/g16/sse4/g16/l301.exe)
 Standard basis: CC-pVDZ (5D, 7F)
 Ernie: Thresh=  0.10000D-02 Tol=  0.10000D-05 Strict=F.
 Ernie:  6 primitive shells out of 96 were deleted.
 There are    75 symmetry adapted cartesian basis functions of A   symmetry.
 There are    72 symmetry adapted basis functions of A   symmetry.
    72 basis functions,   141 primitive gaussians,    75 cartesian basis functions
    13 alpha electrons       13 beta electrons
       nuclear repulsion energy        81.2205427421 Hartrees.
 IExCor=    0 DFT=F Ex=HF Corr=None ExCW=0 ScaHFX=  1.000000
 ScaDFX=  1.000000  1.000000  1.000000  1.000000 ScalE2=  1.000000  1.000000
 IRadAn=      5 IRanWt=     -1 IRanGd=            0 ICorTp=0 IEmpDi=  4
 NAtoms=    9 NActive=    9 NUniq=    9 SFac= 1.00D+00 NAtFMM=   60 NAOKFM=F Big=F
 Integral buffers will be    131072 words long.
 Raffenetti 1 integral format.
 Two-electron integral symmetry is turned on.
 Leave Link  301 at Thu Dec 16 11:32:59 2021, MaxMem=   536870912 cpu:               0.2 elap:               0.0
 (Enter /opt/gaussian/g16/sse4/g16/l302.exe)
 NPDir=0 NMtPBC=     1 NCelOv=     1 NCel=       1 NClECP=     1 NCelD=      1
         NCelK=      1 NCelE2=     1 NClLst=     1 CellRange=     0.0.
 One-electron integrals computed using PRISM.
 One-electron integral symmetry used in STVInt
 NBasis=    72 RedAO= T EigKep=  6.65D-03  NBF=    72
 NBsUse=    72 1.00D-06 EigRej= -1.00D+00 NBFU=    72
 Leave Link  302 at Thu Dec 16 11:32:59 2021, MaxMem=   536870912 cpu:               0.5 elap:               0.2
 (Enter /opt/gaussian/g16/sse4/g16/l303.exe)
 DipDrv:  MaxL=1.
 Leave Link  303 at Thu Dec 16 11:33:00 2021, MaxMem=   536870912 cpu:               0.1 elap:               0.1
 (Enter /opt/gaussian/g16/sse4/g16/l401.exe)
 Initial guess from the checkpoint file:  "CCSD_Ethanol_gaus.chk"
 B after Tr=     0.000000   -0.000000    0.000000
         Rot=    0.999888    0.014398    0.003759    0.001362 Ang=   1.71 deg.
 Guess basis will be translated and rotated to current coordinates.
 JPrj=2 DoOrth=T DoCkMO=T.
 Generating alternative initial guess.
 ExpMin= 1.22D-01 ExpMax= 1.17D+04 ExpMxC= 4.01D+02 IAcc=2 IRadAn=         4 AccDes= 0.00D+00
 Harris functional with IExCor=  205 and IRadAn=       4 diagonalized for initial guess.
 HarFok:  IExCor=  205 AccDes= 0.00D+00 IRadAn=         4 IDoV= 1 UseB2=F ITyADJ=14
 ICtDFT=  3500011 ScaDFX=  1.000000  1.000000  1.000000  1.000000
 FoFCou: FMM=F IPFlag=           0 FMFlag=      100000 FMFlg1=           0
         NFxFlg=           0 DoJE=T BraDBF=F KetDBF=T FulRan=T
         wScrn=  0.000000 ICntrl=       500 IOpCl=  0 I1Cent=   200000004 NGrid=           0
         NMat0=    1 NMatS0=      1 NMatT0=    0 NMatD0=    1 NMtDS0=    0 NMtDT0=    0
 Petite list used in FoFCou.
 Harris En= -154.351610807465    
 Leave Link  401 at Thu Dec 16 11:33:00 2021, MaxMem=   536870912 cpu:               1.4 elap:               0.4
 (Enter /opt/gaussian/g16/sse4/g16/l502.exe)
 Keep R1 ints in memory in canonical form, NReq=4336443.
 FoFCou: FMM=F IPFlag=           0 FMFlag=           0 FMFlg1=           0
         NFxFlg=           0 DoJE=F BraDBF=F KetDBF=F FulRan=T
         wScrn=  0.000000 ICntrl=       600 IOpCl=  0 I1Cent=           0 NGrid=           0
         NMat0=    1 NMatS0=   2628 NMatT0=    0 NMatD0=    1 NMtDS0=    0 NMtDT0=    0
 Symmetry not used in FoFCou.
 Two-electron integral symmetry not used.
 Closed shell SCF:
 Using DIIS extrapolation, IDIIS=  1040.
 NGot=   536870912 LenX=   533403697 LenY=   533397631
 Requested convergence on RMS density matrix=1.00D-08 within 128 cycles.
 Requested convergence on MAX density matrix=1.00D-06.
 Requested convergence on             energy=1.00D-06.
 No special actions if energy rises.

 Cycle   1  Pass 1  IDiag  1:
 E= -154.089728549115    
 DIIS: error= 1.86D-03 at cycle   1 NSaved=   1.
 NSaved= 1 IEnMin= 1 EnMin= -154.089728549115     IErMin= 1 ErrMin= 1.86D-03
 ErrMax= 1.86D-03  0.00D+00 EMaxC= 1.00D-01 BMatC= 7.44D-04 BMatP= 7.44D-04
 IDIUse=3 WtCom= 9.81D-01 WtEn= 1.86D-02
 Coeff-Com:  0.100D+01
 Coeff-En:   0.100D+01
 Coeff:      0.100D+01
 Gap=     0.978 Goal=   None    Shift=    0.000
 GapD=    0.978 DampG=2.000 DampE=1.000 DampFc=2.0000 IDamp=-1.
 RMSDP=4.49D-04 MaxDP=4.23D-03              OVMax= 6.78D-03

 Cycle   2  Pass 1  IDiag  1:
 E= -154.090731423282     Delta-E=       -0.001002874168 Rises=F Damp=F
 DIIS: error= 5.97D-04 at cycle   2 NSaved=   2.
 NSaved= 2 IEnMin= 2 EnMin= -154.090731423282     IErMin= 2 ErrMin= 5.97D-04
 ErrMax= 5.97D-04  0.00D+00 EMaxC= 1.00D-01 BMatC= 4.68D-05 BMatP= 7.44D-04
 IDIUse=3 WtCom= 9.94D-01 WtEn= 5.97D-03
 Coeff-Com: -0.207D+00 0.121D+01
 Coeff-En:   0.000D+00 0.100D+01
 Coeff:     -0.205D+00 0.121D+01
 Gap=     0.615 Goal=   None    Shift=    0.000
 RMSDP=1.54D-04 MaxDP=1.31D-03 DE=-1.00D-03 OVMax= 2.93D-03

 Cycle   3  Pass 1  IDiag  1:
 E= -154.090823665257     Delta-E=       -0.000092241975 Rises=F Damp=F
 DIIS: error= 2.10D-04 at cycle   3 NSaved=   3.
 NSaved= 3 IEnMin= 3 EnMin= -154.090823665257     IErMin= 3 ErrMin= 2.10D-04
 ErrMax= 2.10D-04  0.00D+00 EMaxC= 1.00D-01 BMatC= 4.46D-06 BMatP= 4.68D-05
 IDIUse=3 WtCom= 9.98D-01 WtEn= 2.10D-03
 Coeff-Com: -0.634D-01 0.174D+00 0.890D+00
 Coeff-En:   0.000D+00 0.000D+00 0.100D+01
 Coeff:     -0.633D-01 0.173D+00 0.890D+00
 Gap=     0.615 Goal=   None    Shift=    0.000
 RMSDP=3.57D-05 MaxDP=3.78D-04 DE=-9.22D-05 OVMax= 7.49D-04

 Cycle   4  Pass 1  IDiag  1:
 E= -154.090830449407     Delta-E=       -0.000006784150 Rises=F Damp=F
 DIIS: error= 6.69D-05 at cycle   4 NSaved=   4.
 NSaved= 4 IEnMin= 4 EnMin= -154.090830449407     IErMin= 4 ErrMin= 6.69D-05
 ErrMax= 6.69D-05  0.00D+00 EMaxC= 1.00D-01 BMatC= 4.35D-07 BMatP= 4.46D-06
 IDIUse=1 WtCom= 1.00D+00 WtEn= 0.00D+00
 Coeff-Com:  0.214D-01-0.135D+00 0.222D-02 0.111D+01
 Coeff:      0.214D-01-0.135D+00 0.222D-02 0.111D+01
 Gap=     0.615 Goal=   None    Shift=    0.000
 RMSDP=1.74D-05 MaxDP=2.85D-04 DE=-6.78D-06 OVMax= 3.45D-04

 Cycle   5  Pass 1  IDiag  1:
 E= -154.090831365594     Delta-E=       -0.000000916187 Rises=F Damp=F
 DIIS: error= 1.46D-05 at cycle   5 NSaved=   5.
 NSaved= 5 IEnMin= 5 EnMin= -154.090831365594     IErMin= 5 ErrMin= 1.46D-05
 ErrMax= 1.46D-05  0.00D+00 EMaxC= 1.00D-01 BMatC= 2.94D-08 BMatP= 4.35D-07
 IDIUse=1 WtCom= 1.00D+00 WtEn= 0.00D+00
 Coeff-Com:  0.606D-02-0.273D-01-0.435D-01 0.160D+00 0.904D+00
 Coeff:      0.606D-02-0.273D-01-0.435D-01 0.160D+00 0.904D+00
 Gap=     0.615 Goal=   None    Shift=    0.000
 RMSDP=3.60D-06 MaxDP=6.61D-05 DE=-9.16D-07 OVMax= 6.30D-05

 Cycle   6  Pass 1  IDiag  1:
 E= -154.090831407444     Delta-E=       -0.000000041851 Rises=F Damp=F
 DIIS: error= 7.13D-06 at cycle   6 NSaved=   6.
 NSaved= 6 IEnMin= 6 EnMin= -154.090831407444     IErMin= 6 ErrMin= 7.13D-06
 ErrMax= 7.13D-06  0.00D+00 EMaxC= 1.00D-01 BMatC= 3.83D-09 BMatP= 2.94D-08
 IDIUse=1 WtCom= 1.00D+00 WtEn= 0.00D+00
 Coeff-Com: -0.182D-02 0.133D-01-0.713D-02-0.114D+00 0.123D+00 0.987D+00
 Coeff:     -0.182D-02 0.133D-01-0.713D-02-0.114D+00 0.123D+00 0.987D+00
 Gap=     0.615 Goal=   None    Shift=    0.000
 RMSDP=1.42D-06 MaxDP=3.17D-05 DE=-4.19D-08 OVMax= 2.78D-05

 Cycle   7  Pass 1  IDiag  1:
 E= -154.090831413855     Delta-E=       -0.000000006411 Rises=F Damp=F
 DIIS: error= 1.26D-06 at cycle   7 NSaved=   7.
 NSaved= 7 IEnMin= 7 EnMin= -154.090831413855     IErMin= 7 ErrMin= 1.26D-06
 ErrMax= 1.26D-06  0.00D+00 EMaxC= 1.00D-01 BMatC= 2.26D-10 BMatP= 3.83D-09
 IDIUse=1 WtCom= 1.00D+00 WtEn= 0.00D+00
 Coeff-Com: -0.371D-03 0.136D-02 0.372D-02-0.672D-02-0.859D-01-0.549D-01
 Coeff-Com:  0.114D+01
 Coeff:     -0.371D-03 0.136D-02 0.372D-02-0.672D-02-0.859D-01-0.549D-01
 Coeff:      0.114D+01
 Gap=     0.615 Goal=   None    Shift=    0.000
 RMSDP=4.74D-07 MaxDP=7.28D-06 DE=-6.41D-09 OVMax= 8.97D-06

 Cycle   8  Pass 1  IDiag  1:
 E= -154.090831414404     Delta-E=       -0.000000000550 Rises=F Damp=F
 DIIS: error= 2.92D-07 at cycle   8 NSaved=   8.
 NSaved= 8 IEnMin= 8 EnMin= -154.090831414404     IErMin= 8 ErrMin= 2.92D-07
 ErrMax= 2.92D-07  0.00D+00 EMaxC= 1.00D-01 BMatC= 1.21D-11 BMatP= 2.26D-10
 IDIUse=1 WtCom= 1.00D+00 WtEn= 0.00D+00
 Coeff-Com:  0.144D-03-0.878D-03-0.513D-04 0.700D-02 0.602D-02-0.448D-01
 Coeff-Com: -0.185D+00 0.122D+01
 Coeff:      0.144D-03-0.878D-03-0.513D-04 0.700D-02 0.602D-02-0.448D-01
 Coeff:     -0.185D+00 0.122D+01
 Gap=     0.615 Goal=   None    Shift=    0.000
 RMSDP=1.28D-07 MaxDP=1.44D-06 DE=-5.50D-10 OVMax= 2.84D-06

 Cycle   9  Pass 1  IDiag  1:
 E= -154.090831414440     Delta-E=       -0.000000000036 Rises=F Damp=F
 DIIS: error= 7.29D-08 at cycle   9 NSaved=   9.
 NSaved= 9 IEnMin= 9 EnMin= -154.090831414440     IErMin= 9 ErrMin= 7.29D-08
 ErrMax= 7.29D-08  0.00D+00 EMaxC= 1.00D-01 BMatC= 8.31D-13 BMatP= 1.21D-11
 IDIUse=1 WtCom= 1.00D+00 WtEn= 0.00D+00
 Coeff-Com:  0.199D-04-0.652D-04-0.216D-03 0.263D-03 0.511D-02 0.513D-02
 Coeff-Com: -0.707D-01-0.105D-01 0.107D+01
 Coeff:      0.199D-04-0.652D-04-0.216D-03 0.263D-03 0.511D-02 0.513D-02
 Coeff:     -0.707D-01-0.105D-01 0.107D+01
 Gap=     0.615 Goal=   None    Shift=    0.000
 RMSDP=3.05D-08 MaxDP=3.32D-07 DE=-3.55D-11 OVMax= 7.39D-07

 Cycle  10  Pass 1  IDiag  1:
 E= -154.090831414442     Delta-E=       -0.000000000002 Rises=F Damp=F
 DIIS: error= 2.23D-08 at cycle  10 NSaved=  10.
 NSaved=10 IEnMin=10 EnMin= -154.090831414442     IErMin=10 ErrMin= 2.23D-08
 ErrMax= 2.23D-08  0.00D+00 EMaxC= 1.00D-01 BMatC= 7.50D-14 BMatP= 8.31D-13
 IDIUse=1 WtCom= 1.00D+00 WtEn= 0.00D+00
 Coeff-Com: -0.110D-04 0.706D-04-0.105D-04-0.584D-03-0.180D-03 0.410D-02
 Coeff-Com:  0.886D-02-0.996D-01 0.881D-01 0.999D+00
 Coeff:     -0.110D-04 0.706D-04-0.105D-04-0.584D-03-0.180D-03 0.410D-02
 Coeff:      0.886D-02-0.996D-01 0.881D-01 0.999D+00
 Gap=     0.615 Goal=   None    Shift=    0.000
 RMSDP=8.10D-09 MaxDP=9.51D-08 DE=-2.39D-12 OVMax= 2.38D-07

 SCF Done:  E(RHF) =  -154.090831414     A.U. after   10 cycles
            NFock= 10  Conv=0.81D-08     -V/T= 2.0017
 KE= 1.538313804735D+02 PE=-5.241970156904D+02 EE= 1.350542610604D+02
 Leave Link  502 at Thu Dec 16 11:33:01 2021, MaxMem=   536870912 cpu:               2.1 elap:               0.7
 (Enter /opt/gaussian/g16/sse4/g16/l801.exe)
 Windowed orbitals will be sorted by symmetry type.
 ExpMin= 1.22D-01 ExpMax= 1.17D+04 ExpMxC= 4.01D+02 IAcc=3 IRadAn=         5 AccDes= 0.00D+00
 HarFok:  IExCor=  205 AccDes= 0.00D+00 IRadAn=         5 IDoV=-2 UseB2=F ITyADJ=14
 ICtDFT= 12500011 ScaDFX=  1.000000  1.000000  1.000000  1.000000
 Largest valence mixing into a core orbital is  1.07D-04
 Largest core mixing into a valence orbital is  4.27D-05
 Range of M.O.s used for correlation:     4    72
 NBasis=    72 NAE=    13 NBE=    13 NFC=     3 NFV=     0
 NROrb=     69 NOA=    10 NOB=    10 NVA=    59 NVB=    59
 Leave Link  801 at Thu Dec 16 11:33:02 2021, MaxMem=   536870912 cpu:               0.5 elap:               0.1
 (Enter /opt/gaussian/g16/sse4/g16/l804.exe)
 Closed-shell transformation, MDV=   536870912 ITran=4 ISComp=1.
 Semi-Direct transformation.
 ModeAB=           2 MOrb=            10 LenV=     536585487
 LASXX=      1462170 LTotXX=     1462170 LenRXX=     1462170
 LTotAB=     1525225 MaxLAS=     1966500 LenRXY=     1966500
 NonZer=     2924340 LenScr=     5114368 LnRSAI=           0
 LnScr1=           0 LExtra=           0 Total=      8543038
 MaxDsk=          -1 SrtSym=           F ITran=            4
 DoSDTr:  NPSUse=  4
 JobTyp=0 Pass  1:  I=   1 to  10.
 (rs|ai) integrals will be sorted in core.
 Complete sort for first half transformation.
 First half transformation complete.
 Begin second half transformation for I=  10.
 Begin second half transformation for I=  10.
 Complete sort for second half transformation.
 Second half transformation complete.
 SymMOI:  orbitals are not symmetric.
 Spin components of T(2) and E(2):
     alpha-alpha T2 =       0.1749198452D-01 E2=     -0.5680962676D-01
     alpha-beta  T2 =       0.1122228083D+00 E2=     -0.3691953372D+00
     beta-beta   T2 =       0.1749198452D-01 E2=     -0.5680962676D-01
 ANorm=    0.1071077391D+01
 E2 =    -0.4828145907D+00 EUMP2 =    -0.15457364600515D+03
 Leave Link  804 at Thu Dec 16 11:33:02 2021, MaxMem=   536870912 cpu:               2.2 elap:               0.6
 (Enter /opt/gaussian/g16/sse4/g16/l913.exe)
 CIDS:  MDV=   536870912.
 Frozen-core window:  NFC=   3 NFV=   0.
 IFCWin=0 IBDFC=1 NFBD=     0     0 NFCmp=     0     0 NFFFC=     0     0
 Using DD3R+UMP44R for 1st iteration.
 Using DD4RQ for 2nd and later iterations.
 Keep R2 and R3 ints in memory in canonical form, NReq=7795229.
 FoFCou: FMM=F IPFlag=           0 FMFlag=           0 FMFlg1=           0
         NFxFlg=           0 DoJE=F BraDBF=F KetDBF=F FulRan=T
         wScrn=  0.000000 ICntrl=       600 IOpCl=  0 I1Cent=           0 NGrid=           0
         NMat0=    1 NMatS0=   2628 NMatT0=    0 NMatD0=    1 NMtDS0=    0 NMtDT0=    0
 Symmetry not used in FoFCou.
 Two-electron integral symmetry not used.
 CIDS: In Core Option IDoMem=           1.
 Coupled Cluster theory with single and double substitutions
 ===========================================================
 Iterations=  50 Convergence= 0.100D-07
 Produce multiple copies of IABC intergrals
 Iteration Nr.   1
 **********************
 DD1Dir will call FoFMem   1 times, MxPair=       110
 NAB=    55 NAA=     0 NBB=     0.
 MP4(R+Q)=  0.76249341D-02
 Maximum subspace dimension=  5
 A-vector RMS=  2.7048452D-03 Max=  7.8286731D-03 conv= 1.00D-06.
 RLE energy=       -0.5072027642
 E3=       -0.30930030D-01        EUMP3=      -0.15460457603D+03
 E4(DQ)=   -0.37612803D-02        UMP4(DQ)=   -0.15460833732D+03
 E4(SDQ)=  -0.65656602D-02        UMP4(SDQ)=  -0.15461114170D+03
 VARIATIONAL ENERGIES WITH THE FIRST-ORDER WAVEFUNCTION:
 DE(Corr)= -0.50603011     E(Corr)=     -154.59686152    
 NORM(A)=   0.10804175D+01
 Iteration Nr.   2
 **********************
 DD1Dir will call FoFMem   1 times, MxPair=       110
 NAB=    55 NAA=     0 NBB=     0.
 A-vector RMS=  4.1199202D-04 Max=  1.1818906D-03 conv= 1.00D-06.
 RLE energy=       -0.5199345055
 DE(Corr)= -0.51764940     E(CORR)=     -154.60848081     Delta=-1.16D-02
 NORM(A)=   0.10858695D+01
 Iteration Nr.   3
 **********************
 DD1Dir will call FoFMem   1 times, MxPair=       110
 NAB=    55 NAA=     0 NBB=     0.
 A-vector RMS=  3.6896344D-04 Max=  1.3462224D-03 conv= 1.00D-06.
 RLE energy=       -0.5205767886
 DE(Corr)= -0.51982563     E(CORR)=     -154.61065705     Delta=-2.18D-03
 NORM(A)=   0.10867499D+01
 Iteration Nr.   4
 **********************
 DD1Dir will call FoFMem   1 times, MxPair=       110
 NAB=    55 NAA=     0 NBB=     0.
 A-vector RMS=  6.7628243D-05 Max=  1.9213603D-04 conv= 1.00D-06.
 RLE energy=       -0.5206900833
 DE(Corr)= -0.52062614     E(CORR)=     -154.61145755     Delta=-8.01D-04
 NORM(A)=   0.10869270D+01
 Iteration Nr.   5
 **********************
 DD1Dir will call FoFMem   1 times, MxPair=       110
 NAB=    55 NAA=     0 NBB=     0.
 A-vector RMS=  3.4620732D-05 Max=  1.9382329D-04 conv= 1.00D-06.
 RLE energy=       -0.5207156782
 DE(Corr)= -0.52070219     E(CORR)=     -154.61153360     Delta=-7.61D-05
 NORM(A)=   0.10869614D+01
 Iteration Nr.   6
 **********************
 DD1Dir will call FoFMem   1 times, MxPair=       110
 NAB=    55 NAA=     0 NBB=     0.
 A-vector RMS=  8.5603860D-06 Max=  2.9232901D-05 conv= 1.00D-06.
 RLE energy=       -0.5207078419
 DE(Corr)= -0.52071066     E(CORR)=     -154.61154208     Delta=-8.48D-06
 NORM(A)=   0.10869622D+01
 Iteration Nr.   7
 **********************
 DD1Dir will call FoFMem   1 times, MxPair=       110
 NAB=    55 NAA=     0 NBB=     0.
 A-vector RMS=  4.0527044D-06 Max=  2.5723437D-05 conv= 1.00D-06.
 RLE energy=       -0.5207080133
 DE(Corr)= -0.52071064     E(CORR)=     -154.61154205     Delta= 2.55D-08
 NORM(A)=   0.10869629D+01
 Iteration Nr.   8
 **********************
 DD1Dir will call FoFMem   1 times, MxPair=       110
 NAB=    55 NAA=     0 NBB=     0.
 A-vector RMS=  1.5672564D-06 Max=  9.4404633D-06 conv= 1.00D-06.
 RLE energy=       -0.5207096538
 DE(Corr)= -0.52070988     E(CORR)=     -154.61154129     Delta= 7.62D-07
 NORM(A)=   0.10869641D+01
 Iteration Nr.   9
 **********************
 DD1Dir will call FoFMem   1 times, MxPair=       110
 NAB=    55 NAA=     0 NBB=     0.
 A-vector RMS=  4.9481154D-07 Max=  2.6558354D-06 conv= 1.00D-06.
 RLE energy=       -0.5207100411
 DE(Corr)= -0.52071009     E(CORR)=     -154.61154151     Delta=-2.16D-07
 NORM(A)=   0.10869645D+01
 Iteration Nr.  10
 **********************
 DD1Dir will call FoFMem   1 times, MxPair=       110
 NAB=    55 NAA=     0 NBB=     0.
 A-vector RMS=  2.0498421D-07 Max=  1.7075006D-06 conv= 1.00D-06.
 RLE energy=       -0.5207103222
 DE(Corr)= -0.52071025     E(CORR)=     -154.61154167     Delta=-1.63D-07
 NORM(A)=   0.10869648D+01
 Iteration Nr.  11
 **********************
 DD1Dir will call FoFMem   1 times, MxPair=       110
 NAB=    55 NAA=     0 NBB=     0.
 A-vector RMS=  6.5856297D-08 Max=  3.4411970D-07 conv= 1.00D-06.
 RLE energy=       -0.5207103873
 DE(Corr)= -0.52071035     E(CORR)=     -154.61154177     Delta=-1.00D-07
 NORM(A)=   0.10869649D+01
 Iteration Nr.  12
 **********************
 DD1Dir will call FoFMem   1 times, MxPair=       110
 NAB=    55 NAA=     0 NBB=     0.
 A-vector RMS=  2.6987072D-08 Max=  2.2801823D-07 conv= 1.00D-06.
 RLE energy=       -0.5207104180
 DE(Corr)= -0.52071040     E(CORR)=     -154.61154182     Delta=-4.96D-08
 NORM(A)=   0.10869649D+01
 Iteration Nr.  13
 **********************
 DD1Dir will call FoFMem   1 times, MxPair=       110
 NAB=    55 NAA=     0 NBB=     0.
 A-vector RMS=  1.0892400D-08 Max=  6.6010655D-08 conv= 1.00D-06.
 RLE energy=       -0.5207104231
 DE(Corr)= -0.52071042     E(CORR)=     -154.61154183     Delta=-1.40D-08
 NORM(A)=   0.10869649D+01
 Iteration Nr.  14
 **********************
 DD1Dir will call FoFMem   1 times, MxPair=       110
 NAB=    55 NAA=     0 NBB=     0.
 A-vector RMS=  5.0138484D-09 Max=  4.4006600D-08 conv= 1.00D-06.
 RLE energy=       -0.5207104249
 DE(Corr)= -0.52071042     E(CORR)=     -154.61154184     Delta=-5.54D-09
 NORM(A)=   0.10869649D+01
 CI/CC converged in   14 iterations to DelEn=-5.54D-09 Conv= 1.00D-08 ErrA1= 5.01D-09 Conv= 1.00D-06
 Wavefunction amplitudes converged. E(Corr)=     -154.61154184    
 Largest amplitude= 1.93D-02

 Z-amplitude iterations

 Iteration Nr.   1
 **********************
 DD1Dir will call FoFMem   1 times, MxPair=       110
 NAB=    55 NAA=     0 NBB=     0.
 A-vector RMS=  9.2709347D-04 Max=  3.0190114D-03 conv= 1.00D-06.
 RLE energy=       -0.5211836457
 DE(Z)= -0.50996779     E(Z)=     -154.60079920     Delta= 1.07D-02
 NORM(A)=   0.10871480D+01
 Iteration Nr.   2
 **********************
 DD1Dir will call FoFMem   1 times, MxPair=       110
 NAB=    55 NAA=     0 NBB=     0.
 A-vector RMS=  9.6669333D-04 Max=  3.1459095D-03 conv= 1.00D-06.
 RLE energy=       -0.5207055122
 DE(Z)= -0.51003391     E(Z)=     -154.60086533     Delta=-6.61D-05
 NORM(A)=   0.10869630D+01
 Iteration Nr.   3
 **********************
 DD1Dir will call FoFMem   1 times, MxPair=       110
 NAB=    55 NAA=     0 NBB=     0.
 A-vector RMS=  9.2674971D-04 Max=  3.0179241D-03 conv= 1.00D-06.
 RLE energy=       -0.5206975379
 DE(Z)= -0.50996717     E(Z)=     -154.60079858     Delta= 6.67D-05
 NORM(A)=   0.10869598D+01
 Iteration Nr.   4
 **********************
 DD1Dir will call FoFMem   1 times, MxPair=       110
 NAB=    55 NAA=     0 NBB=     0.
 A-vector RMS=  9.2612267D-04 Max=  3.0158687D-03 conv= 1.00D-06.
 RLE energy=       -0.5207062377
 DE(Z)= -0.50996611     E(Z)=     -154.60079752     Delta= 1.06D-06
 NORM(A)=   0.10869633D+01
 Iteration Nr.   5
 **********************
 DD1Dir will call FoFMem   1 times, MxPair=       110
 NAB=    55 NAA=     0 NBB=     0.
 A-vector RMS=  9.2677823D-04 Max=  3.0179858D-03 conv= 1.00D-06.
 RLE energy=       -0.5083690711
 DE(Z)= -0.50996724     E(Z)=     -154.60079866     Delta=-1.13D-06
 NORM(A)=   0.10822676D+01
 Iteration Nr.   6
 **********************
 DD1Dir will call FoFMem   1 times, MxPair=       110
 NAB=    55 NAA=     0 NBB=     0.
 A-vector RMS=  1.2386123D-05 Max=  7.0310214D-05 conv= 1.00D-06.
 RLE energy=       -0.5083723440
 DE(Z)= -0.50837223     E(Z)=     -154.59920364     Delta= 1.60D-03
 NORM(A)=   0.10822646D+01
 Iteration Nr.   7
 **********************
 DD1Dir will call FoFMem   1 times, MxPair=       110
 NAB=    55 NAA=     0 NBB=     0.
 A-vector RMS=  2.3074896D-06 Max=  7.2525340D-06 conv= 1.00D-06.
 RLE energy=       -0.5083722125
 DE(Z)= -0.50837201     E(Z)=     -154.59920343     Delta= 2.14D-07
 NORM(A)=   0.10822644D+01
 Iteration Nr.   8
 **********************
 DD1Dir will call FoFMem   1 times, MxPair=       110
 NAB=    55 NAA=     0 NBB=     0.
 A-vector RMS=  1.1325460D-06 Max=  6.1018414D-06 conv= 1.00D-06.
 RLE energy=       -0.5083717988
 DE(Z)= -0.50837139     E(Z)=     -154.59920281     Delta= 6.22D-07
 NORM(A)=   0.10822641D+01
 Iteration Nr.   9
 **********************
 DD1Dir will call FoFMem   1 times, MxPair=       110
 NAB=    55 NAA=     0 NBB=     0.
 A-vector RMS=  3.7603460D-07 Max=  2.1629316D-06 conv= 1.00D-06.
 RLE energy=       -0.5083718327
 DE(Z)= -0.50837183     E(Z)=     -154.59920324     Delta=-4.35D-07
 NORM(A)=   0.10822641D+01
 Iteration Nr.  10
 **********************
 DD1Dir will call FoFMem   1 times, MxPair=       110
 NAB=    55 NAA=     0 NBB=     0.
 A-vector RMS=  1.5709040D-07 Max=  5.1355566D-07 conv= 1.00D-06.
 RLE energy=       -0.5083717712
 DE(Z)= -0.50837174     E(Z)=     -154.59920316     Delta= 8.47D-08
 NORM(A)=   0.10822641D+01
 Iteration Nr.  11
 **********************
 DD1Dir will call FoFMem   1 times, MxPair=       110
 NAB=    55 NAA=     0 NBB=     0.
 A-vector RMS=  4.5264246D-08 Max=  3.1471056D-07 conv= 1.00D-06.
 RLE energy=       -0.5083717239
 DE(Z)= -0.50837173     E(Z)=     -154.59920315     Delta= 1.06D-08
 NORM(A)=   0.10822641D+01
 Iteration Nr.  12
 **********************
 DD1Dir will call FoFMem   1 times, MxPair=       110
 NAB=    55 NAA=     0 NBB=     0.
 A-vector RMS=  2.0775556D-08 Max=  1.6628329D-07 conv= 1.00D-06.
 RLE energy=       -0.5083717399
 DE(Z)= -0.50837174     E(Z)=     -154.59920315     Delta=-7.23D-09
 NORM(A)=   0.10822641D+01
 CI/CC converged in   12 iterations to DelEn=-7.23D-09 Conv= 1.00D-08 ErrA1= 2.08D-08 Conv= 1.00D-06
 Z-amplitudes converged.
 Discarding MO integrals.
 Leave Link  913 at Thu Dec 16 11:33:36 2021, MaxMem=   536870912 cpu:             120.2 elap:              33.2
 (Enter /opt/gaussian/g16/sse4/g16/l1111.exe)
 Unit  1 TFree=       8104567 TCopy=       2045284.
 Selected functions:
 Compute CCSD 2PDM.
 Form Post-SCF non-separable gradient here.
 IO1PDM=    0 IOW=    0 IO2PDM=    0.
 MDV=     536870912.
 Frozen-core window:  NFC=   3 NFV=   0.
 Leave Link 1111 at Thu Dec 16 11:33:52 2021, MaxMem=   536870912 cpu:              64.0 elap:              16.1
 (Enter /opt/gaussian/g16/sse4/g16/l1002.exe)
 Minotr:  Closed shell wavefunction.
          Computing CCSD/QCISD derivatives.
          Using Z-Vector for PSCF gradient.
          Skipping F1 and S1 gradient terms here.
          IDoAtm=111111111
          Frozen-core window.
          Direct CPHF calculation.
          Differentiating once with respect to electric field.
                with respect to dipole field.
          Differentiating once with respect to nuclear coordinates.
          Requested convergence is 1.0D-10 RMS, and 1.0D-09 maximum.
[...]
     24 -0.361059D-02  0.392570D-04  0.103452D-02  0.280228D-02  0.330579D-02
     25  0.226393D-02 -0.240945D-02 -0.213891D-02 -0.396594D-02 -0.259931D-02
     26  0.174807D-02  0.268267D-02  0.120500D-02 -0.719378D-02  0.153940D-02
     27 -0.271303D-02 -0.539657D-03  0.107086D-02 -0.118332D-02 -0.188688D-02
     28  0.206895D-02 -0.276827D-02 -0.259736D-02  0.399387D-02 -0.651834D-02
     29  0.155309D-02  0.232385D-02  0.746551D-03  0.766024D-03 -0.237962D-02
     30 -0.290800D-02 -0.898480D-03  0.612418D-03  0.677648D-02 -0.580590D-02
     31 -0.442108D-02  0.352872D-02  0.334189D-04 -0.986386D-03  0.724661D-02
     32 -0.800234D-03 -0.458014D-02 -0.159403D-02  0.108652D-02 -0.262067D-02
     33  0.417128D-02  0.128705D-02  0.252945D-03 -0.976417D-03 -0.413675D-02
               11            12            13            14            15 
     11  0.101405D+00
     12  0.128796D-01  0.511776D-01
     13 -0.395529D-01  0.891454D-02  0.502425D-01
     14 -0.395735D-01  0.959841D-02  0.920191D-02  0.513222D-01
     15 -0.149648D-01 -0.565358D-02 -0.333053D-02  0.860998D-02  0.160152D+00
     16  0.169612D-01  0.408902D-02 -0.278583D-02 -0.451969D-02 -0.398253D-01
     17 -0.384052D-02 -0.213445D-02  0.363016D-02 -0.429653D-02 -0.334795D-01
     18 -0.100004D-02  0.112672D-02  0.244996D-02 -0.128666D-02 -0.610153D-01
     19  0.596055D-02  0.294871D-02  0.462527D-03 -0.915946D-03 -0.574944D-01
     20 -0.330767D-02 -0.286673D-03 -0.336078D-04  0.219956D-02  0.248604D-01
     21  0.434644D-03 -0.722436D-03  0.391625D-03 -0.851786D-03 -0.871990D-02
     22 -0.236585D-02  0.655158D-02 -0.663437D-02 -0.146011D-03 -0.223412D-03
     23 -0.297055D-02  0.611281D-02 -0.529598D-02 -0.132947D-02 -0.729097D-02
     24 -0.684566D-02  0.528141D-02 -0.575937D-02  0.129320D-02  0.648119D-02
     25  0.672218D-02 -0.516609D-02 -0.101780D-02  0.605039D-02 -0.307357D-02
     26  0.611748D-02 -0.560486D-02  0.320591D-03  0.486694D-02 -0.101411D-01
     27  0.224236D-02 -0.643627D-02 -0.142801D-03  0.748960D-02  0.363103D-02
     28  0.330535D-02  0.903382D-03  0.483083D-02 -0.668174D-02  0.344093D-02
     29  0.270065D-02  0.464611D-03  0.616922D-02 -0.786520D-02 -0.362663D-02
     30 -0.117447D-02 -0.366793D-03  0.570583D-02 -0.524253D-02  0.101455D-01
     31 -0.667261D-02 -0.175302D-02  0.253177D-02 -0.275680D-03 -0.351503D-02
     32  0.367367D-02  0.249439D-03 -0.176818D-02 -0.748365D-03  0.176741D-01
     33  0.265287D-02  0.215717D-02 -0.315236D-03  0.690296D-03 -0.162714D-01
               16            17            18            19            20 
     16  0.750282D-01
     17 -0.827012D-02  0.733787D-01
     18 -0.288783D-01  0.212760D-01  0.685518D-01
     19  0.219598D-01 -0.294511D-01  0.872645D-02  0.637103D-01
     20 -0.222982D-01 -0.218075D-01 -0.415140D-02 -0.472392D-02  0.289143D-01
     21  0.420227D-02 -0.539920D-02 -0.145857D-02  0.137052D-01 -0.189313D-02
     22 -0.406738D-02  0.409536D-02  0.132936D-01 -0.134679D-01  0.146617D-03
     23  0.594116D-02  0.700072D-02 -0.983976D-02  0.476430D-03  0.429292D-02
     24 -0.707134D-02 -0.550712D-02 -0.147249D-03  0.107340D-01 -0.449290D-02
     25 -0.441729D-04  0.235374D-02  0.126030D-01 -0.116779D-01 -0.460026D-03
     26  0.996437D-02  0.525910D-02 -0.105303D-01  0.226642D-02  0.368628D-02
     27 -0.304813D-02 -0.724874D-02 -0.837783D-03  0.125240D-01 -0.509954D-02
     28 -0.272535D-02  0.128110D-03  0.111129D-01 -0.132685D-01  0.796829D-03
     29  0.728319D-02  0.303347D-02 -0.120205D-01  0.675843D-03  0.494313D-02
     30 -0.572931D-02 -0.947437D-02 -0.232797D-02  0.109335D-01 -0.384268D-02
     31 -0.217054D-01  0.241931D-01  0.984687D-02 -0.646421D-02 -0.795238D-03
     32  0.251939D-01  0.440555D-02 -0.216772D-01 -0.140345D-01 -0.146752D-01
     33 -0.318750D-02 -0.275682D-01  0.127669D-01  0.210925D-01  0.148126D-01
               21            22            23            24            25 
     21  0.194837D+00
     22 -0.472854D-02  0.164327D-01
     23  0.358643D-03  0.231895D-02  0.159890D-01
     24  0.338896D-02  0.212825D-02  0.294012D-02  0.160164D-01
     25 -0.429101D-02  0.647824D-02 -0.769748D-02 -0.852499D-02  0.172837D-01
     26  0.796174D-03 -0.763551D-02  0.597259D-02 -0.771312D-02  0.310796D-02
     27  0.382649D-02 -0.782621D-02 -0.707631D-02  0.536313D-02  0.228044D-02
     28 -0.451259D-02  0.652895D-02 -0.842628D-02 -0.783383D-02  0.707446D-02
     29  0.574590D-03 -0.758480D-02  0.524378D-02 -0.702196D-02 -0.710126D-02
     30  0.360490D-02 -0.777550D-02 -0.780511D-02  0.605429D-02 -0.792877D-02
     31  0.216218D-03 -0.271404D-02  0.341141D-02  0.291574D-02 -0.464458D-02
     32 -0.190680D-02  0.190557D-02 -0.174462D-02 -0.164650D-02  0.260827D-02
     33  0.293717D-02  0.106360D-02 -0.132100D-02 -0.920734D-03  0.172225D-02
               26            27            28            29            30 
     26  0.167160D-01
     27  0.303034D-02  0.154698D-01
     28 -0.788077D-02 -0.728832D-02  0.174289D-01
     29  0.572732D-02 -0.653842D-02  0.247365D-02  0.153022D-01
     30 -0.795838D-02  0.590102D-02  0.306610D-02  0.303649D-02  0.168959D-01
     31  0.148087D-02  0.985209D-03 -0.462790D-02  0.149756D-02  0.100189D-02
     32 -0.104192D-02 -0.943804D-03  0.284584D-02 -0.804350D-03 -0.706235D-03
     33 -0.662351D-03 -0.262087D-03  0.179434D-02 -0.590259D-03 -0.189995D-03
               31            32            33 
     31  0.170816D-01
     32 -0.663387D-02  0.232767D-01
     33 -0.632510D-02 -0.129944D-01  0.229969D-01
 Leave Link  716 at Thu Dec 16 12:20:27 2021, MaxMem=   536870912 cpu:               0.2 elap:               0.0
 (Enter /opt/gaussian/g16/sse4/g16/l103.exe)

 GradGradGradGradGradGradGradGradGradGradGradGradGradGradGradGradGradGrad
 Berny optimization.
 Red2BG is reusing G-inverse.
 Internal  Forces:  Max     0.000046103 RMS     0.000015412
 Search for a local minimum.
 Step number   1 out of a maximum of    2
 All quantities printed in internal units (Hartrees-Bohrs-Radians)
 Second derivative matrix not updated -- analytic derivatives used.
 ITU=  0
     Eigenvalues ---    0.00318   0.00380   0.04470   0.04496   0.05104
     Eigenvalues ---    0.06119   0.10433   0.12239   0.12620   0.13202
     Eigenvalues ---    0.16586   0.18309   0.24583   0.31101   0.32372
     Eigenvalues ---    0.34024   0.34214   0.34590   0.34891   0.39787
     Eigenvalues ---    0.53400
 Angle between quadratic step and forces=  72.19 degrees.
 Linear search not attempted -- first point.
 Iteration  1 RMS(Cart)=  0.00021068 RMS(Int)=  0.00000005
 Iteration  2 RMS(Cart)=  0.00000005 RMS(Int)=  0.00000000
 ITry= 1 IFail=0 DXMaxC= 7.50D-04 DCOld= 1.00D+10 DXMaxT= 3.00D-01 DXLimC= 3.00D+00 Rises=F
 Variable       Old X    -DE/DX   Delta X   Delta X   Delta X     New X
                                 (Linear)    (Quad)   (Total)
    R1        2.88834   0.00005   0.00000   0.00016   0.00016   2.88849
    R2        2.08893  -0.00000   0.00000  -0.00001  -0.00001   2.08892
    R3        2.09206   0.00003   0.00000   0.00008   0.00008   2.09214
    R4        2.08658   0.00004   0.00000   0.00012   0.00012   2.08671
    R5        2.68541  -0.00003   0.00000  -0.00010  -0.00010   2.68531
    R6        2.09975   0.00002   0.00000   0.00006   0.00006   2.09980
    R7        2.08665   0.00002   0.00000   0.00006   0.00006   2.08671
    R8        1.82535  -0.00001   0.00000  -0.00003  -0.00003   1.82532
    A1        1.93852  -0.00001   0.00000  -0.00006  -0.00006   1.93846
    A2        1.93273   0.00002   0.00000   0.00014   0.00014   1.93287
    A3        1.92371   0.00001   0.00000  -0.00003  -0.00003   1.92368
    A4        1.88095   0.00001   0.00000   0.00015   0.00015   1.88110
    A5        1.89938  -0.00000   0.00000  -0.00007  -0.00007   1.89931
    A6        1.88711  -0.00002   0.00000  -0.00014  -0.00014   1.88697
    A7        1.96367  -0.00000   0.00000   0.00000   0.00000   1.96368
    A8        1.91929  -0.00000   0.00000  -0.00002  -0.00002   1.91927
    A9        1.92125   0.00000   0.00000  -0.00005  -0.00005   1.92121
   A10        1.94340   0.00001   0.00000   0.00007   0.00007   1.94347
   A11        1.84459  -0.00001   0.00000  -0.00005  -0.00005   1.84454
   A12        1.86787   0.00000   0.00000   0.00005   0.00005   1.86792
   A13        1.85734  -0.00000   0.00000   0.00002   0.00002   1.85736
    D1       -3.08147   0.00001   0.00000   0.00043   0.00043  -3.08104
    D2        1.02461   0.00001   0.00000   0.00036   0.00036   1.02497
    D3       -1.02916   0.00000   0.00000   0.00034   0.00034  -1.02882
    D4        1.11240   0.00000   0.00000   0.00019   0.00019   1.11259
    D5       -1.06470  -0.00000   0.00000   0.00011   0.00011  -1.06459
    D6       -3.11847  -0.00001   0.00000   0.00009   0.00009  -3.11838
    D7       -0.97499   0.00000   0.00000   0.00029   0.00029  -0.97469
    D8        3.13109   0.00000   0.00000   0.00022   0.00022   3.13131
    D9        1.07732  -0.00000   0.00000   0.00020   0.00020   1.07752
   D10       -1.06671  -0.00000   0.00000  -0.00066  -0.00066  -1.06737
   D11        1.09710  -0.00000   0.00000  -0.00064  -0.00064   1.09646
   D12        3.11929  -0.00000   0.00000  -0.00057  -0.00057   3.11872
         Item               Value     Threshold  Converged?
 Maximum Force            0.000046     0.000450     YES
 RMS     Force            0.000015     0.000300     YES
 Maximum Displacement     0.000750     0.001800     YES
 RMS     Displacement     0.000211     0.001200     YES
 Predicted change in Energy=-1.908089D-08
 Optimization completed.
    -- Stationary point found.
                           ----------------------------
                           !   Optimized Parameters   !
                           ! (Angstroms and Degrees)  !
 --------------------------                            --------------------------
 ! Name  Definition              Value          Derivative Info.                !
 --------------------------------------------------------------------------------
 ! R1    R(1,2)                  1.5284         -DE/DX =    0.0                 !
 ! R2    R(1,4)                  1.1054         -DE/DX =    0.0                 !
 ! R3    R(1,5)                  1.1071         -DE/DX =    0.0                 !
 ! R4    R(1,6)                  1.1042         -DE/DX =    0.0                 !
 ! R5    R(2,3)                  1.4211         -DE/DX =    0.0                 !
 ! R6    R(2,7)                  1.1111         -DE/DX =    0.0                 !
 ! R7    R(2,8)                  1.1042         -DE/DX =    0.0                 !
 ! R8    R(3,9)                  0.9659         -DE/DX =    0.0                 !
 ! A1    A(2,1,4)              111.069          -DE/DX =    0.0                 !
 ! A2    A(2,1,5)              110.7375         -DE/DX =    0.0                 !
 ! A3    A(2,1,6)              110.2206         -DE/DX =    0.0                 !
 ! A4    A(4,1,5)              107.7705         -DE/DX =    0.0                 !
 ! A5    A(4,1,6)              108.8265         -DE/DX =    0.0                 !
 ! A6    A(5,1,6)              108.1235         -DE/DX =    0.0                 !
 ! A7    A(1,2,3)              112.5102         -DE/DX =    0.0                 !
 ! A8    A(1,2,7)              109.9673         -DE/DX =    0.0                 !
 ! A9    A(1,2,8)              110.0797         -DE/DX =    0.0                 !
 ! A10   A(3,2,7)              111.3486         -DE/DX =    0.0                 !
 ! A11   A(3,2,8)              105.6874         -DE/DX =    0.0                 !
 ! A12   A(7,2,8)              107.0213         -DE/DX =    0.0                 !
 ! A13   A(2,3,9)              106.4175         -DE/DX =    0.0                 !
 ! D1    D(4,1,2,3)           -176.5554         -DE/DX =    0.0                 !
 ! D2    D(4,1,2,7)             58.7057         -DE/DX =    0.0                 !
 ! D3    D(4,1,2,8)            -58.9668         -DE/DX =    0.0                 !
 ! D4    D(5,1,2,3)             63.736          -DE/DX =    0.0                 !
 ! D5    D(5,1,2,7)            -61.0029         -DE/DX =    0.0                 !
 ! D6    D(5,1,2,8)           -178.6754         -DE/DX =    0.0                 !
 ! D7    D(6,1,2,3)            -55.8626         -DE/DX =    0.0                 !
 ! D8    D(6,1,2,7)            179.3985         -DE/DX =    0.0                 !
 ! D9    D(6,1,2,8)             61.726          -DE/DX =    0.0                 !
 ! D10   D(1,2,3,9)            -61.1179         -DE/DX =    0.0                 !
 ! D11   D(7,2,3,9)             62.8591         -DE/DX =    0.0                 !
 ! D12   D(8,2,3,9)            178.7224         -DE/DX =    0.0                 !
 --------------------------------------------------------------------------------
 GradGradGradGradGradGradGradGradGradGradGradGradGradGradGradGradGradGrad

 Leave Link  103 at Thu Dec 16 12:20:27 2021, MaxMem=   536870912 cpu:               0.2 elap:               0.0
 (Enter /opt/gaussian/g16/sse4/g16/l9999.exe)
 1\1\GINC-NODE670\Freq\RCCSD-FC\CC-pVDZ\C2H6O1\THEOB\16-Dec-2021\0\\#P 
 Geom=AllCheck Guess=TCheck SCRF=Check GenChk RCCSD(FC)/CC-pVDZ Freq\\E
 thanol.xyz\\0,1\C,0.9948743222,0.0732900114,-0.0591908072\C,2.52284510
 93,0.0918523405,-0.0922660176\O,3.0394328836,1.2615715524,-0.712189773
 7\H,0.6198572539,-0.8150608222,0.481303458\H,0.5808924201,0.0440473796
 ,-1.0855296069\H,0.6128795817,0.9813529549,0.4395066067\H,2.9029113237
 ,-0.8286176244,-0.5851257096\H,2.9242699415,0.0970075232,0.9363763498\
 H,2.7108171638,1.2569866848,-1.6204944996\\Version=ES64L-G16RevA.03\St
 ate=1-A\HF=-154.0912095\MP2=-154.573735\MP3=-154.6047119\MP4D=-154.616
 0707\MP4DQ=-154.6084672\MP4SDQ=-154.6112506\CCSD=-154.6116567\RMSD=4.0
 40e-10\RMSF=1.980e-05\ZeroPoint=0.0808519\Thermal=0.0850522\Dipole=-0.
 3821058,-0.4046373,-0.2779745\DipoleDeriv=-0.0821369,-0.0326916,0.0411
 356,0.0159666,0.0794131,0.0156032,0.0206442,0.0000359,0.1115248,0.5456
 732,0.1337084,-0.1265899,0.1058627,0.6793297,-0.1357848,-0.130034,-0.1
 667917,0.4335059,-0.6168397,-0.1052616,0.1974375,-0.1280651,-0.7324066
 ,0.1956086,0.2237786,0.2260504,-0.4058449,-0.0029678,-0.0407884,0.0290
 046,-0.0718818,-0.0799746,0.0867977,0.044379,0.0840203,0.0085558,-0.01
 73757,-0.0027186,-0.0334012,0.0075561,0.0529383,0.0018007,-0.0877022,-
 0.0000664,-0.1508813,-0.0065082,0.0307924,0.0165462,0.0783333,-0.07149
 28,-0.0759926,0.0246799,-0.0669701,0.0190416,-0.0696721,0.0513875,0.05
 82151,0.0643685,-0.1994106,-0.0393764,0.0625722,-0.0883387,-0.0377336,
 -0.0351224,-0.0111016,-0.0643958,-0.0246701,0.0174375,-0.0029048,-0.07
 14868,0.0249467,-0.1374287,0.2849188,-0.0233983,-0.117948,-0.0473869,0
 .2541653,-0.0457892,-0.0868258,-0.0128621,0.1591978\PG=C01 [X(C2H6O1)]
 \NImag=0\\0.49967640,-0.00128014,0.59233645,-0.00036273,-0.00088046,0.
 57701623,-0.22295233,0.01621721,-0.00738755,0.51285128,0.00677707,-0.0
 7959921,-0.00345441,-0.02788356,0.54571155,-0.00059201,-0.00183332,-0.
 08443997,0.03690320,0.03254395,0.62712120,-0.01460568,-0.04169041,0.02
 262238,-0.09406909,-0.04999235,0.00203126,0.17551854,-0.00784593,-0.01
 150548,0.01047360,-0.06838794,-0.19875872,0.03845518,0.11358575,0.2836
 5289,0.00380693,0.00958630,-0.00203087,0.03062206,0.07896407,-0.124675
 36,0.13391413,-0.09214850,0.58992475,-0.07893719,-0.07084493,0.0439660
 2,-0.00241301,-0.02782654,0.01692411,-0.00975348,-0.00272885,0.0017535
 3,0.08225378,-0.07311599,-0.22291807,0.10696526,0.00313593,-0.00065697
 ,-0.00094357,-0.00126545,0.00148252,0.00054185,0.08030633,0.23858506,0
 .04526193,0.10718664,-0.11216649,-0.00173408,-0.00030421,-0.00167950,0
 .00052434,-0.00006398,0.00144976,-0.04870000,-0.11774680,0.11728570,-0
 .08222979,-0.00290366,-0.08853012,-0.01283269,-0.00046940,-0.03559601,
 0.00345348,0.00142205,0.00081734,0.00368474,0.00102226,0.01105449,0.09
 023332,-0.00222495,-0.04860419,-0.00810789,-0.00009858,-0.00076580,0.0
 0118804,0.00033033,0.00004682,-0.00079513,0.01045727,0.00145212,0.0240
 8628,0.00239875,0.04631284,-0.09000684,-0.00727966,-0.27827987,0.00321
 793,0.00111713,-0.00014938,-0.00015368,-0.00150013,0.00240137,-0.00575
 131,-0.00198749,-0.01348385,0.09930404,0.00775493,0.29992531,-0.077539
 69,0.07416880,0.04110419,-0.01237711,0.03182283,0.01647600,0.00430667,
 -0.00103397,-0.00167401,0.00337244,-0.00941700,-0.00623687,0.00343873,
 -0.01045797,-0.00518080,0.08477329,0.07751383,-0.23389326,-0.10290910,
 -0.00226184,-0.00148227,0.00040318,0.00000257,0.00216986,-0.00019089,0
 .00900614,-0.01820485,-0.01240808,-0.00035445,0.00047224,0.00133686,-0
 .08438605,0.24982171,0.04182928,-0.10294110,-0.10552240,-0.00085821,0.
 00019740,0.00013071,-0.00060309,0.00044975,-0.00023218,-0.00668523,0.0
 1390635,0.00785567,0.01085553,-0.02478284,-0.01255043,-0.04483707,0.11
 266926,0.10879137,-0.01235707,0.02807862,0.01755590,-0.08403879,0.0718
 4708,0.04063735,0.00675575,-0.01761529,-0.00434751,0.00096370,-0.00057
 575,0.00013543,0.00173273,-0.00008840,-0.00067388,-0.00739833,-0.00001
 698,-0.00000122,0.08958154,-0.00079387,0.00186463,-0.00168248,0.072106
 60,-0.20653332,-0.09262293,0.00101404,-0.03647403,-0.00189134,0.001203
 67,0.00027975,-0.00025957,-0.00006260,-0.00015006,0.00036510,-0.000504
 39,0.00113744,0.00005263,-0.07364881,0.23860765,-0.00223786,-0.0010368
 9,0.00106635,0.04023147,-0.09754914,-0.11422246,-0.00322451,0.02201654
 ,0.01000103,0.00013113,-0.00007797,-0.00010083,0.00054854,0.00071588,0
 .00085510,0.00036734,0.00060085,0.00138178,-0.04653577,0.09896795,0.11
 197343,-0.01267059,-0.00169136,-0.03213657,-0.08718828,-0.00018967,-0.
 09462625,0.00541540,-0.00339057,0.01591595,0.00112935,-0.00032702,0.00
 037632,-0.00715360,0.00013564,0.00023756,0.00161720,0.00036267,0.00021
 455,0.00502835,0.00113762,0.01132110,0.09393771,0.00078082,0.00117817,
 -0.00011025,-0.00414367,-0.05188968,-0.01956593,0.00832387,-0.00557670
 ,0.03673275,0.00003827,0.00009126,-0.00021975,-0.00026681,0.00107916,0
 .00059834,-0.00020387,0.00012292,0.00085373,-0.00921912,0.00055364,-0.
 02386425,0.00645286,0.05959572,0.00210635,-0.00069216,0.00243778,-0.09
 018153,-0.00741010,-0.27999963,-0.00351577,0.00584113,-0.01773751,-0.0
 0083113,-0.00031446,0.00024065,0.00067173,-0.00012410,0.00155002,-0.00
 024611,0.00040509,0.00048109,-0.00609833,-0.00163047,-0.01301062,0.096
 40942,0.00077712,0.30569299,0.00162253,-0.00005665,0.00316980,0.003005
 60,-0.00408623,0.01784245,-0.07701316,-0.01399962,-0.18080142,-0.00030
 192,0.00023547,-0.00068101,-0.00032503,-0.00045187,-0.00099190,-0.0001
 9368,0.00013449,0.00008431,-0.00026786,-0.00045286,-0.00060186,-0.0001
 1271,-0.00176045,0.00168825,0.07358297,0.00018700,0.00114700,-0.000292
 46,0.01132022,-0.00602619,0.04238118,-0.03030568,-0.03503489,-0.030802
 12,0.00039012,-0.00011215,-0.00027055,-0.00078685,0.00015677,-0.000408
 13,0.00001093,-0.00014602,-0.00040496,0.00123959,0.00070961,0.00022543
 ,-0.00248989,-0.00515535,0.00314757,0.02043154,0.04446277,0.00019836,-
 0.00210931,0.00191958,-0.01080788,-0.00410374,-0.02208961,-0.15160501,
 0.01647926,-0.45910076,-0.00080899,-0.00034724,0.00060053,0.00087285,0
 .00006517,-0.00027160,0.00022581,0.00009573,-0.00033449,-0.00067355,-0
 .00129733,0.00205795,0.00228907,0.00479887,0.00034927,0.16029793,-0.01
 358114,0.47686735\\0.00001061,0.00004571,0.00000617,-0.00004470,-0.000
 02364,0.00002634,0.00001934,0.00001772,-0.00001273,-0.00000627,-0.0000
 0589,-0.00001119,0.00002081,-0.00001318,0.00002431,0.00002117,-0.00003
 201,-0.00001235,-0.00000295,0.00001741,0.00001071,-0.00001120,-0.00000
 967,-0.00001943,-0.00000681,0.00000355,-0.00001183\\\@


 NEVER TEACH A PIG TO SING.
 IT WASTES YOUR TIME AND ANNOYS THE PIG.
     -- SEEN ON A GREETING CARD
 Job cpu time:       0 days  2 hours 27 minutes 55.4 seconds.
 Elapsed time:       0 days  0 hours 37 minutes 19.3 seconds.
 File lengths (MBytes):  RWF=    374 Int=      0 D2E=      0 Chk=     40 Scr=      1
 Normal termination of Gaussian 16 at Thu Dec 16 12:20:31 2021.
