

     ************************************************************************
     *************** Dalton - An Electronic Structure Program ***************
     ************************************************************************

    This is output from DALTON release Dalton2016.1 (2016)
         ( Web site: http://daltonprogram.org )

   ----------------------------------------------------------------------------

    NOTE:
     
    Dalton is an experimental code for the evaluation of molecular
    properties using (MC)SCF, DFT, CI, and CC wave functions.
    The authors accept no responsibility for the performance of
    the code or for the correctness of the results.
     
    The code (in whole or part) is provided under a licence and
    is not to be reproduced for further distribution without
    the written permission of the authors or their representatives.
     
    See the home page "http://daltonprogram.org" for further information.
     
    If results obtained with this code are published,
    the appropriate citations would be both of:
     
       K. Aidas, C. Angeli, K. L. Bak, V. Bakken, R. Bast,
       L. Boman, O. Christiansen, R. Cimiraglia, S. Coriani,
       P. Dahle, E. K. Dalskov, U. Ekstroem,
       T. Enevoldsen, J. J. Eriksen, P. Ettenhuber, B. Fernandez,
       L. Ferrighi, H. Fliegl, L. Frediani, K. Hald, A. Halkier,
       C. Haettig, H. Heiberg, T. Helgaker, A. C. Hennum,
       H. Hettema, E. Hjertenaes, S. Hoest, I.-M. Hoeyvik,
       M. F. Iozzi, B. Jansik, H. J. Aa. Jensen, D. Jonsson,
       P. Joergensen, J. Kauczor, S. Kirpekar,
       T. Kjaergaard, W. Klopper, S. Knecht, R. Kobayashi, H. Koch,
       J. Kongsted, A. Krapp, K. Kristensen, A. Ligabue,
       O. B. Lutnaes, J. I. Melo, K. V. Mikkelsen, R. H. Myhre,
       C. Neiss, C. B. Nielsen, P. Norman, J. Olsen,
       J. M. H. Olsen, A. Osted, M. J. Packer, F. Pawlowski,
       T. B. Pedersen, P. F. Provasi, S. Reine, Z. Rinkevicius,
       T. A. Ruden, K. Ruud, V. Rybkin, P. Salek, C. C. M. Samson,
       A. Sanchez de Meras, T. Saue, S. P. A. Sauer,
       B. Schimmelpfennig, K. Sneskov, A. H. Steindal,
       K. O. Sylvester-Hvid, P. R. Taylor, A. M. Teale,
       E. I. Tellgren, D. P. Tew, A. J. Thorvaldsen, L. Thoegersen,
       O. Vahtras, M. A. Watson, D. J. D. Wilson, M. Ziolkowski
       and H. Agren,
       "The Dalton quantum chemistry program system",
       WIREs Comput. Mol. Sci. 2014, 4:269–284 (doi: 10.1002/wcms.1172)
     
    and
     
       Dalton, a Molecular Electronic Structure Program,
       Release Dalton2016.1 (2016), see http://daltonprogram.org
   ----------------------------------------------------------------------------

    Authors in alphabetical order (major contribution(s) in parenthesis):

  Kestutis Aidas,           Vilnius University,           Lithuania   (QM/MM)
  Celestino Angeli,         University of Ferrara,        Italy       (NEVPT2)
  Keld L. Bak,              UNI-C,                        Denmark     (AOSOPPA, non-adiabatic coupling, magnetic properties)
  Vebjoern Bakken,          University of Oslo,           Norway      (DALTON; geometry optimizer, symmetry detection)
  Radovan Bast,             UiT The Arctic U. of Norway,  Norway      (DALTON installation and execution frameworks)
  Pablo Baudin,             University of Valencia,       Spain       (Cholesky excitation energies)
  Linus Boman,              NTNU,                         Norway      (Cholesky decomposition and subsystems)
  Ove Christiansen,         Aarhus University,            Denmark     (CC module)
  Renzo Cimiraglia,         University of Ferrara,        Italy       (NEVPT2)
  Sonia Coriani,            University of Trieste,        Italy       (CC module, MCD in RESPONS)
  Janusz Cukras,            University of Trieste,        Italy       (MChD in RESPONS)
  Paal Dahle,               University of Oslo,           Norway      (Parallelization)
  Erik K. Dalskov,          UNI-C,                        Denmark     (SOPPA)
  Thomas Enevoldsen,        Univ. of Southern Denmark,    Denmark     (SOPPA)
  Janus J. Eriksen,         Aarhus University,            Denmark     (Polarizable embedding model, TDA)
  Rasmus Faber,             University of Copenhagen,     Denmark     (Vib.avg. NMR with SOPPA, parallel AO-SOPPA)
  Berta Fernandez,          U. of Santiago de Compostela, Spain       (doublet spin, ESR in RESPONS)
  Lara Ferrighi,            Aarhus University,            Denmark     (PCM Cubic response)
  Heike Fliegl,             University of Oslo,           Norway      (CCSD(R12))
  Luca Frediani,            UiT The Arctic U. of Norway,  Norway      (PCM)
  Bin Gao,                  UiT The Arctic U. of Norway,  Norway      (Gen1Int library)
  Christof Haettig,         Ruhr-University Bochum,       Germany     (CC module)
  Kasper Hald,              Aarhus University,            Denmark     (CC module)
  Asger Halkier,            Aarhus University,            Denmark     (CC module)
  Frederik Beyer Hansen,    University of Copenhagen,     Denmark     (Parallel AO-SOPPA)
  Erik D. Hedegaard,        Univ. of Southern Denmark,    Denmark     (Polarizable embedding model, QM/MM)
  Hanne Heiberg,            University of Oslo,           Norway      (geometry analysis, selected one-electron integrals)
  Trygve Helgaker,          University of Oslo,           Norway      (DALTON; ABACUS, ERI, DFT modules, London, and much more)
  Alf Christian Hennum,     University of Oslo,           Norway      (Parity violation)
  Hinne Hettema,            University of Auckland,       New Zealand (quadratic response in RESPONS; SIRIUS supersymmetry)
  Eirik Hjertenaes,         NTNU,                         Norway      (Cholesky decomposition)
  Maria Francesca Iozzi,    University of Oslo,           Norway      (RPA)
  Brano Jansik              Technical Univ. of Ostrava    Czech Rep.  (DFT cubic response)
  Hans Joergen Aa. Jensen,  Univ. of Southern Denmark,    Denmark     (DALTON; SIRIUS, RESPONS, ABACUS modules, London, and much more)
  Dan Jonsson,              UiT The Arctic U. of Norway,  Norway      (cubic response in RESPONS module)
  Poul Joergensen,          Aarhus University,            Denmark     (RESPONS, ABACUS, and CC modules)
  Maciej Kaminski,          University of Warsaw,         Poland      (CPPh in RESPONS)
  Joanna Kauczor,           Linkoeping University,        Sweden      (Complex polarization propagator (CPP) module)
  Sheela Kirpekar,          Univ. of Southern Denmark,    Denmark     (Mass-velocity & Darwin integrals)
  Wim Klopper,              KIT Karlsruhe,                Germany     (R12 code in CC, SIRIUS, and ABACUS modules)
  Stefan Knecht,            ETH Zurich,                   Switzerland (Parallel CI and MCSCF)
  Rika Kobayashi,           Australian National Univ.,    Australia   (DIIS in CC, London in MCSCF)
  Henrik Koch,              NTNU,                         Norway      (CC module, Cholesky decomposition)
  Jacob Kongsted,           Univ. of Southern Denmark,    Denmark     (Polarizable embedding model, QM/MM)
  Andrea Ligabue,           University of Modena,         Italy       (CTOCD, AOSOPPA)
  Nanna H. List             Univ. of Southern Denmark,    Denmark     (Polarizable embedding model)
  Ola B. Lutnaes,           University of Oslo,           Norway      (DFT Hessian)
  Juan I. Melo,             University of Buenos Aires,   Argentina   (LRESC, Relativistic Effects on NMR Shieldings)
  Kurt V. Mikkelsen,        University of Copenhagen,     Denmark     (MC-SCRF and QM/MM)
  Rolf H. Myhre,            NTNU,                         Norway      (Cholesky, subsystems and ECC2)
  Christian Neiss,          Univ. Erlangen-Nuernberg,     Germany     (CCSD(R12))
  Christian B. Nielsen,     University of Copenhagen,     Denmark     (QM/MM)
  Patrick Norman,           Linkoeping University,        Sweden      (Cubic response and complex frequency response in RESPONS)
  Jeppe Olsen,              Aarhus University,            Denmark     (SIRIUS CI/density modules)
  Jogvan Magnus H. Olsen,   Univ. of Southern Denmark,    Denmark     (Polarizable embedding model, QM/MM)
  Anders Osted,             Copenhagen University,        Denmark     (QM/MM)
  Martin J. Packer,         University of Sheffield,      UK          (SOPPA)
  Filip Pawlowski,          Kazimierz Wielki University,  Poland      (CC3)
  Morten N. Pedersen,       Univ. of Southern Denmark,    Denmark     (Polarizable embedding model)
  Thomas B. Pedersen,       University of Oslo,           Norway      (Cholesky decomposition)
  Patricio F. Provasi,      University of Northeastern,   Argentina   (Analysis of coupling constants in localized orbitals)
  Zilvinas Rinkevicius,     KTH Stockholm,                Sweden      (open-shell DFT, ESR)
  Elias Rudberg,            KTH Stockholm,                Sweden      (DFT grid and basis info)
  Torgeir A. Ruden,         University of Oslo,           Norway      (Numerical derivatives in ABACUS)
  Kenneth Ruud,             UiT The Arctic U. of Norway,  Norway      (DALTON; ABACUS magnetic properties and much more)
  Pawel Salek,              KTH Stockholm,                Sweden      (DALTON; DFT code)
  Claire C. M. Samson       University of Karlsruhe       Germany     (Boys localization, r12 integrals in ERI)
  Alfredo Sanchez de Meras, University of Valencia,       Spain       (CC module, Cholesky decomposition)
  Trond Saue,               Paul Sabatier University,     France      (direct Fock matrix construction)
  Stephan P. A. Sauer,      University of Copenhagen,     Denmark     (SOPPA(CCSD), SOPPA prop., AOSOPPA, vibrational g-factors)
  Bernd Schimmelpfennig,    Forschungszentrum Karlsruhe,  Germany     (AMFI module)
  Kristian Sneskov,         Aarhus University,            Denmark     (Polarizable embedding model, QM/MM)
  Arnfinn H. Steindal,      UiT The Arctic U. of Norway,  Norway      (parallel QM/MM, Polarizable embedding model)
  Casper Steinmann,         Univ. of Southern Denmark,    Denmark     (QFIT, Polarizable embedding model)
  K. O. Sylvester-Hvid,     University of Copenhagen,     Denmark     (MC-SCRF)
  Peter R. Taylor,          VLSCI/Univ. of Melbourne,     Australia   (Symmetry handling ABACUS, integral transformation)
  Andrew M. Teale,          University of Nottingham,     England     (DFT-AC, DFT-D)
  David P. Tew,             University of Bristol,        England     (CCSD(R12))
  Olav Vahtras,             KTH Stockholm,                Sweden      (triplet response, spin-orbit, ESR, TDDFT, open-shell DFT)
  David J. Wilson,          La Trobe University,          Australia   (DFT Hessian and DFT magnetizabilities)
  Hans Agren,               KTH Stockholm,                Sweden      (SIRIUS module, RESPONS, MC-SCRF solvation model)
 --------------------------------------------------------------------------------

     Date and time (Linux)  : Fri Dec 17 09:15:44 2021
     Host name              : node339.cluster                         

 * Work memory size             :   512000000 =  3.815 gigabytes.

 * Directories for basis set searches:
   1) /groups/kemi/qhw298/bin/UCPH-KVM/test_systems/xyz
   2) /lustre/hpc/software/kemi/DALTON2016/build-parallel/basis


Compilation information
-----------------------

 Who compiled             | sauer
 Host                     | fend01.cluster
 System                   | Linux-2.6.32-642.6.2.el6.x86_64
 CMake generator          | Unix Makefiles
 Processor                | x86_64
 64-bit integers          | OFF
 MPI                      | ON
 Fortran compiler         | /software/kemi/openmpi-1.6.5-i4/bin/mpif90
 Fortran compiler version | ifort (IFORT) 13.0.1 20121010
 C compiler               | /software/kemi/openmpi-1.6.5-i4/bin/mpicc
 C compiler version       | icc (ICC) 13.0.1 20121010
 C++ compiler             | /software/kemi/openmpi-1.6.5-i4/bin/mpicxx
 C++ compiler version     | unknown
 BLAS                     | /users/software/kemi/intel/Compiler/composer_xe_20
                          | 13.1.117/mkl/lib/intel64/libmkl_intel_lp64.so;/use
                          | rs/software/kemi/intel/Compiler/composer_xe_2013.1
                          | .117/mkl/lib/intel64/libmkl_sequential.so;/users/s
                          | oftware/kemi/intel/Compiler/composer_xe_2013.1.117
                          | /mkl/lib/intel64/libmkl_core.so;/usr/lib64/libpthr
                          | ead.so;/usr/lib64/libm.so
 LAPACK                   | /users/software/kemi/intel/Compiler/composer_xe_20
                          | 13.1.117/mkl/lib/intel64/libmkl_lapack95_lp64.a;/u
                          | sers/software/kemi/intel/Compiler/composer_xe_2013
                          | .1.117/mkl/lib/intel64/libmkl_intel_lp64.so
 Static linking           | OFF
 Last Git revision        | a10ef0cf7cc62686ecfeaafb7364c9b014fdc003
 Configuration time       | 2017-07-05 12:54:37.340882

 * MPI run using 2 processes.


   Content of the .dal input file
 ----------------------------------

**DALTON INPUT                                    
.RUN WAVE FUNCTIONS                               
.DIRECT                                           
.RUN PROPERTIES                                   
**WAVE FUNCTIONS                                  
.DFT                                              
Camb3lyp                                          
**PROPERTIES                                      
.VIBANA                                           
**END OF DALTON                                   


   Content of the .mol file
 ----------------------------

ATOMBASIS                                                                      
./xyz/Ethanol_orca_CCSD.xyz                                                    
Hej Magnus                                                                     
Atomtypes=3 Charge=0 NoSymmetry Angstrom                                       
  6.0000     2 Bas=cc-pVDZ Aux=cc-pVDZ-RI                                      
C     0.995599845         0.073273423        -0.059330149                      
C     2.522318381         0.091912415        -0.092437460                      
  8.0000     1 Bas=cc-pVDZ Aux=cc-pVDZ-RI                                      
O     3.038362094         1.260875521        -0.711920376                      
  1.0000     6 Bas=cc-pVDZ Aux=cc-pVDZ-RI                                      
H     0.620609148        -0.814255684         0.480345282                      
H     0.581706517         0.044601681        -1.084623034                      
H     0.614121787         0.980412919         0.439287659                      
H     2.902163617        -0.827972119        -0.584292634                      
H     2.923432130         0.097158846         0.935314249                      
H     2.710466482         1.256422998        -1.619953537                      


       *******************************************************************
       *********** Output from DALTON general input processing ***********
       *******************************************************************

 --------------------------------------------------------------------------------
   Overall default print level:    0
   Print level for DALTON.STAT:    1

    Parallel calculation using MPI
    AO-direct calculation (in sections where implemented)
    HERMIT 1- and 2-electron integral sections will be executed
    "Old" integral transformation used (limited to max 255 basis functions)
    Wave function sections will be executed (SIRIUS module)
    Static molecular property section will be executed (ABACUS module)
 --------------------------------------------------------------------------------


   ****************************************************************************
   *************** Output of molecule and basis set information ***************
   ****************************************************************************


    The two title cards from your ".mol" input:
    ------------------------------------------------------------------------
 1: ./xyz/Ethanol_orca_CCSD.xyz                                             
 2: Hej Magnus                                                              
    ------------------------------------------------------------------------

  Coordinates are entered in Angstrom and converted to atomic units.
          - Conversion factor : 1 bohr = 0.52917721 A

  Atomic type no.    1
  --------------------
  Nuclear charge:   6.00000
  Number of symmetry independent centers:    2
  Number of basis sets to read;    2
  The basis set is "cc-pVDZ Aux=cc-pVDZ-RI" from the basis set library.
  Basis set file used for this atomic type with Z =   6 :
     "/lustre/hpc/software/kemi/DALTON2016/build-parallel/basis/cc-pVDZ"

  Atomic type no.    2
  --------------------
  Nuclear charge:   8.00000
  Number of symmetry independent centers:    1
  Number of basis sets to read;    2
  The basis set is "cc-pVDZ Aux=cc-pVDZ-RI" from the basis set library.
  Basis set file used for this atomic type with Z =   8 :
     "/lustre/hpc/software/kemi/DALTON2016/build-parallel/basis/cc-pVDZ"

  Atomic type no.    3
  --------------------
  Nuclear charge:   1.00000
  Number of symmetry independent centers:    6
  Number of basis sets to read;    2
  The basis set is "cc-pVDZ Aux=cc-pVDZ-RI" from the basis set library.
  Basis set file used for this atomic type with Z =   1 :
     "/lustre/hpc/software/kemi/DALTON2016/build-parallel/basis/cc-pVDZ"


                         SYMGRP: Point group information
                         -------------------------------

@    Point group: C1 


                                 Isotopic Masses
                                 ---------------

                           C          12.000000
                           C          12.000000
                           O          15.994915
                           H           1.007825
                           H           1.007825
                           H           1.007825
                           H           1.007825
                           H           1.007825
                           H           1.007825

                       Total mass:    46.041865 amu
                       Natural abundance:  97.490 %

 Center-of-mass coordinates (a.u.):    4.155541    0.939569   -0.601431


  Atoms and basis sets
  --------------------

  Number of atom types :    3
  Total number of atoms:    9

  label    atoms   charge   prim   cont     basis
  ----------------------------------------------------------------------
  C           2    6.0000    26    14      [9s4p1d|3s2p1d]                                    
  O           1    8.0000    26    14      [9s4p1d|3s2p1d]                                    
  H           6    1.0000     7     5      [4s1p|2s1p]                                        
  ----------------------------------------------------------------------
  total:      9   26.0000   120    72
  ----------------------------------------------------------------------
  Spherical harmonic basis used.

  Threshold for neglecting AO integrals:  1.00D-12


  Cartesian Coordinates (a.u.)
  ----------------------------

  Total number of coordinates:   27
  C       :     1  x   1.8814110371    2  y   0.1384667017    3  z  -0.1121177326
  C       :     4  x   4.7664909401    5  y   0.1736892918    6  z  -0.1746814831
  O       :     7  x   5.7416722262    8  y   2.3827094124    9  z  -1.3453345334
  H       :    10  x   1.1727813204   11  y  -1.5387202385   12  z   0.9077210284
  H       :    13  x   1.0992660023   14  y   0.0842849618   15  z  -2.0496404831
  H       :    16  x   1.1605219848   17  y   1.8527119063   18  z   0.8301333656
  H       :    19  x   5.4842944061   20  y  -1.5646405440   21  z  -1.1041530551
  H       :    22  x   5.5244860707   23  y   0.1836036096   24  z   1.7674877714
  H       :    25  x   5.1220393220   26  y   2.3742953634   27  z  -3.0612685201


   Interatomic separations (in Angstrom):
   --------------------------------------

            C           C           O           H           H           H     
            ------      ------      ------      ------      ------      ------
 C     :    0.000000
 C     :    1.527191    0.000000
 O     :    2.451357    1.420048    0.000000
 H     :    1.104344    2.183053    3.401940    0.000000
 H     :    1.106054    2.180056    2.766475    1.785574    0.000000
 H     :    1.103199    2.171032    2.698311    1.795150    1.788602    0.000000
 H     :    2.173204    1.110131    2.097170    2.517763    2.529078    3.090810
 H     :    2.169430    1.103265    2.020106    2.518068    3.092990    2.521724
 H     :    2.603105    1.929971    0.965432    3.614757    2.507331    2.951494

            H           H           H     
            ------      ------      ------
 H     :    0.000000
 H     :    1.779192    0.000000
 H     :    2.335390    2.814008    0.000000


  Max    interatomic separation is    3.6148 Angstrom (    6.8309 Bohr)
  between atoms    9 and    4, "H     " and "H     ".

  Min HX interatomic separation is    0.9654 Angstrom (    1.8244 Bohr)

  Min YX interatomic separation is    1.4200 Angstrom (    2.6835 Bohr)


  Bond distances (Angstrom):
  --------------------------

                  atom 1     atom 2       distance
                  ------     ------       --------
  bond distance:  C          C            1.527191
  bond distance:  O          C            1.420048
  bond distance:  H          C            1.104344
  bond distance:  H          C            1.106054
  bond distance:  H          C            1.103199
  bond distance:  H          C            1.110131
  bond distance:  H          C            1.103265
  bond distance:  H          O            0.965432


  Bond angles (degrees):
  ----------------------

                  atom 1     atom 2     atom 3         angle
                  ------     ------     ------         -----
  bond angle:     C          C          H            111.091
  bond angle:     C          C          H            110.751
  bond angle:     C          C          H            110.209
  bond angle:     H          C          H            107.764
  bond angle:     H          C          H            108.817
  bond angle:     H          C          H            108.113
  bond angle:     C          C          O            112.507
  bond angle:     C          C          H            109.971
  bond angle:     C          C          H            110.079
  bond angle:     O          C          H            111.376
  bond angle:     O          C          H            105.685
  bond angle:     H          C          H            106.994
  bond angle:     C          O          H            106.444




 Principal moments of inertia (u*A**2) and principal axes
 --------------------------------------------------------

   IA      14.862369          0.832089    0.477228   -0.282634
   IB      55.005125         -0.554318    0.698106   -0.453188
   IC      62.301871         -0.018966    0.533762    0.845422


 Rotational constants
 --------------------

               A                   B                   C

          34003.9342           9187.8531           8111.7790 MHz
            1.134249            0.306474            0.270580 cm-1


@  Nuclear repulsion energy :   81.407808508568 Hartree


                     .---------------------------------------.
                     | Starting in Integral Section (HERMIT) |
                     `---------------------------------------'



 ***************************************************************************************
 ****************** Output from **INTEGRALS input processing (HERMIT) ******************
 ***************************************************************************************


 - Using defaults, no **INTEGRALS input found

 Default print level:        1

 * Nuclear model: Point charge

 Calculation of one-electron Hamiltonian integrals.

 Center of mass  (bohr):      4.155540953204      0.939569460619     -0.601431448269
 Operator center (bohr):      0.000000000000      0.000000000000      0.000000000000
 Gauge origin    (bohr):      0.000000000000      0.000000000000      0.000000000000
 Dipole origin   (bohr):      0.000000000000      0.000000000000      0.000000000000


     ************************************************************************
     ************************** Output from HERINT **************************
     ************************************************************************

  Total CPU  time used in HERMIT:   0.12 seconds
  Total wall time used in HERMIT:   0.27 seconds


                        .----------------------------------.
                        | End of Integral Section (HERMIT) |
                        `----------------------------------'



                   .--------------------------------------------.
                   | Starting in Wave Function Section (SIRIUS) |
                   `--------------------------------------------'


 *** Output from Huckel module :

     Using EWMO model:          T
     Using EHT  model:          F
     Number of Huckel orbitals each symmetry:   21

 EWMO - Energy Weighted Maximum Overlap - is a Huckel type method,
        which normally is better than Extended Huckel Theory.
 Reference: Linderberg and Ohrn, Propagators in Quantum Chemistry (Wiley, 1973)

 Huckel EWMO eigenvalues for symmetry :  1
          -20.684773     -11.353407     -11.347792      -1.841744      -1.407389
           -1.082843      -0.889374      -0.743528      -0.674703      -0.615896
           -0.565941      -0.493668      -0.470181      -0.233059      -0.175716
           -0.136490      -0.129652      -0.128736      -0.120680      -0.114440
           -0.112291

 **********************************************************************
 *SIRIUS* a direct, restricted step, second order MCSCF program       *
 **********************************************************************

 
     Date and time (Linux)  : Fri Dec 17 09:15:45 2021
     Host name              : node339.cluster                         

 Title lines from ".mol" input file:
     ./xyz/Ethanol_orca_CCSD.xyz                                             
     Hej Magnus                                                              

 Print level on unit LUPRI =   2 is   0
 Print level on unit LUW4  =   2 is   5

@    Restricted, closed shell Kohn-Sham DFT calculation.
 Fock matrices are calculated directly and in parallel without use of integrals on disk.

 Initial molecular orbitals are obtained according to
 ".MOSTART EWMO  " input option

     Wave function specification
     ============================
@    Wave function type        --- KS-DFT ---
@    Number of closed shell electrons          26
@    Number of electrons in active shells       0
@    Total charge of the molecule               0

@    Spin multiplicity and 2 M_S                1         0
@    Total number of symmetries                 1 (point group: C1 )
@    Reference state symmetry                   1 (irrep name : A  )
 
     This is a DFT calculation of type: Camb3lyp
 CAM-B3LYP w/ alpha=0.190 beta=0.460 mu=0.330 VwnWeight=0.190 LypWeight=0.810

     Orbital specifications
     ======================
@    Abelian symmetry species          All |    1
@                                          |  A  
                                       --- |  ---
@    Occupied SCF orbitals              13 |   13
@    Secondary orbitals                 59 |   59
@    Total number of orbitals           72 |   72
@    Number of basis functions          72 |   72

     Optimization information
     ========================
@    Number of configurations                 1
@    Number of orbital rotations            767
     ------------------------------------------
@    Total number of variables              768

     Maximum number of Fock   iterations      0
     Maximum number of DIIS   iterations     60
     Maximum number of QC-SCF iterations     60
     Threshold for SCF convergence     1.00D-05
 
     This is a DFT calculation of type: Camb3lyp
 CAM-B3LYP w/ alpha=0.190 beta=0.460 mu=0.330 VwnWeight=0.190 LypWeight=0.810


 ***********************************************
 ***** DIIS acceleration of SCF iterations *****
 ***********************************************

 C1-DIIS algorithm; max error vectors =    8

 Iter      Total energy        Error norm    Delta(E)  DIIS dim.
 -----------------------------------------------------------------------------
   1  Screening settings (-IFTHRS, JTDIIS, DIFDEN, times)   -7    1    F  3.68D+00  3.68D+00
      K-S energy, electrons, error :    -15.302556274423  25.9999921495   -7.85D-06
@  1    -154.382416496        2.93800D+00   -1.54D+02    1
      Virial theorem: -V/T =      2.014213
@      MULPOP C       0.42; C       0.86; O      -0.67; H      -0.12; H      -0.14; H      -0.16; H      -0.21; H      -0.21; H       0.24; 
   1  Level shift: doubly occupied orbital energies shifted by -2.00D-01
 -----------------------------------------------------------------------------
   2  Screening settings (-IFTHRS, JTDIIS, DIFDEN, times)   -8    2    F  3.70D+00  3.70D+00
      K-S energy, electrons, error :    -15.688228848979  25.9999935700   -6.43D-06
@  2    -154.790562416        1.80862D+00   -4.08D-01    2
      Virial theorem: -V/T =      2.003901
@      MULPOP C      -0.35; C      -0.40; O       0.09; H       0.12; H       0.12; H       0.13; H       0.11; H       0.13; H       0.06; 
   2  Level shift: doubly occupied orbital energies shifted by -2.00D-01
 -----------------------------------------------------------------------------
   3  Screening settings (-IFTHRS, JTDIIS, DIFDEN, times)   -8    3    F  3.71D+00  3.71D+00
      K-S energy, electrons, error :    -15.687705867447  25.9999936542   -6.35D-06
@  3    -154.959148983        2.88961D-01   -1.69D-01    3
      Virial theorem: -V/T =      2.004292
@      MULPOP C      -0.11; C       0.06; O      -0.27; H       0.04; H       0.03; H       0.05; H       0.02; H       0.04; H       0.13; 
   3  Level shift: doubly occupied orbital energies shifted by -5.00D-02
 -----------------------------------------------------------------------------
   4  Screening settings (-IFTHRS, JTDIIS, DIFDEN, times)   -9    4    F  3.72D+00  3.72D+00
      K-S energy, electrons, error :    -15.601636668768  25.9999937238   -6.28D-06
@  4    -154.962686450        1.77265D-01   -3.54D-03    4
      Virial theorem: -V/T =      2.009104
@      MULPOP C      -0.04; C       0.10; O      -0.23; H       0.01; H       0.01; H       0.03; H       0.00; H       0.02; H       0.11; 
   4  Level shift: doubly occupied orbital energies shifted by -5.00D-02
 -----------------------------------------------------------------------------
   5  Screening settings (-IFTHRS, JTDIIS, DIFDEN, times)   -9    5    F  3.73D+00  3.73D+00
      K-S energy, electrons, error :    -15.638728892842  25.9999937629   -6.24D-06
@  5    -154.964231194        2.00848D-02   -1.54D-03    5
      Virial theorem: -V/T =      2.006986
@      MULPOP C      -0.07; C       0.10; O      -0.27; H       0.02; H       0.02; H       0.03; H       0.01; H       0.03; H       0.14; 
   5  Level shift: doubly occupied orbital energies shifted by -1.25D-02
 -----------------------------------------------------------------------------
   6  Screening settings (-IFTHRS, JTDIIS, DIFDEN, times)  -10    6    F  3.73D+00  3.73D+00
      K-S energy, electrons, error :    -15.637144815696  25.9999937798   -6.22D-06
@  6    -154.964262708        4.46747D-03   -3.15D-05    6
      Virial theorem: -V/T =      2.007081
@      MULPOP C      -0.07; C       0.10; O      -0.27; H       0.02; H       0.02; H       0.04; H       0.00; H       0.03; H       0.13; 
 -----------------------------------------------------------------------------
   7  Screening settings (-IFTHRS, JTDIIS, DIFDEN, times)  -11    7    F  3.73D+00  3.73D+00
      K-S energy, electrons, error :    -15.637447859228  25.9999937830   -6.22D-06
@  7    -154.964264434        1.34590D-03   -1.73D-06    7
      Virial theorem: -V/T =      2.007064
@      MULPOP C      -0.07; C       0.10; O      -0.27; H       0.02; H       0.02; H       0.03; H       0.00; H       0.03; H       0.14; 
 -----------------------------------------------------------------------------
   8  Screening settings (-IFTHRS, JTDIIS, DIFDEN, times)  -11    8    F  3.73D+00  3.73D+00
      K-S energy, electrons, error :    -15.637469167085  25.9999937838   -6.22D-06
@  8    -154.964264568        4.47472D-04   -1.34D-07    8
      Virial theorem: -V/T =      2.007064
@      MULPOP C      -0.07; C       0.10; O      -0.27; H       0.02; H       0.02; H       0.03; H       0.00; H       0.03; H       0.14; 
 -----------------------------------------------------------------------------
   9  Screening settings (-IFTHRS, JTDIIS, DIFDEN, times)  -11    9    F  3.73D+00  3.73D+00
      K-S energy, electrons, error :    -15.637462928690  25.9999937838   -6.22D-06
@  9    -154.964264585        8.30849D-05   -1.74D-08    8
      Virial theorem: -V/T =      2.007064
@      MULPOP C      -0.07; C       0.10; O      -0.27; H       0.02; H       0.02; H       0.03; H       0.00; H       0.03; H       0.14; 
 -----------------------------------------------------------------------------
  10  Screening settings (-IFTHRS, JTDIIS, DIFDEN, times)  -11   10    F  3.73D+00  3.73D+00
      K-S energy, electrons, error :    -15.637460781588  25.9999937839   -6.22D-06
@ 10    -154.964264586        1.68465D-05   -9.74D-10    8
      Virial theorem: -V/T =      2.007064
@      MULPOP C      -0.07; C       0.10; O      -0.27; H       0.02; H       0.02; H       0.03; H       0.00; H       0.03; H       0.14; 
 -----------------------------------------------------------------------------
  11  Screening settings (-IFTHRS, JTDIIS, DIFDEN, times)  -11   11    F  3.73D+00  3.73D+00
      K-S energy, electrons, error :    -15.637460660932  25.9999937838   -6.22D-06
@ 11    -154.964264586        5.17573D-06   -6.16D-11    8

@ *** DIIS converged in  11 iterations !
@     Converged SCF energy, gradient:   -154.964264586297    5.18D-06
    - total time used in SIRFCK :              0.00 seconds


 *** SCF orbital energy analysis ***

 Only the 20 lowest virtual orbital energies printed in each symmetry.

 Number of electrons :   26
 Orbital occupations :   13

 Sym       Kohn-Sham orbital energies

1 A     -19.20131849   -10.30198547   -10.25457672    -1.09233489    -0.82258868
         -0.69341363    -0.56564527    -0.51457583    -0.49509921    -0.44228594
         -0.43039056    -0.38365769    -0.32944639     0.09771916     0.13708759
          0.15409158     0.16745953     0.18091074     0.20289118     0.26435002
          0.28925263     0.47218132     0.49638326     0.52558894     0.55914642
          0.60240138     0.63095790     0.67277407     0.70707441     0.71218693
          0.71798682     0.72549442     0.75261659

    E(LUMO) :     0.09771916 au (symmetry 1)
  - E(HOMO) :    -0.32944639 au (symmetry 1)
  ------------------------------------------
    gap     :     0.42716555 au

 --- Writing SIRIFC interface file

 CPU and wall time for SCF :      49.102      49.133


                       .-----------------------------------.
                       | --- Final results from SIRIUS --- |
                       `-----------------------------------'


@    Spin multiplicity:           1
@    Spatial symmetry:            1 ( irrep  A   in C1  )
@    Total charge of molecule:    0

@    Final DFT energy:           -154.964264586297                 
@    Nuclear repulsion:            81.407808508568
@    Electronic energy:          -236.372073094865

@    Final gradient norm:           0.000005175729

 
     Date and time (Linux)  : Fri Dec 17 09:16:35 2021
     Host name              : node339.cluster                         

File label for MO orbitals:  17Dec21   FOCKDIIS

 (Only coefficients > 0.0100 are printed.)

 Molecular orbitals for symmetry species 1  (A  )
 ------------------------------------------------

    Orbital         4        5        6        7        8        9       10
   1 C   :1s     0.0043   0.0195  -0.0093   0.0001  -0.0024  -0.0015   0.0006
   2 C   :1s    -0.0608  -0.6191   0.4333  -0.0817  -0.0071   0.0365   0.0210
   3 C   :1s     0.0075   0.1902  -0.1388   0.0229   0.0235  -0.0133   0.0078
   4 C   :2px   -0.0368  -0.0882  -0.1701   0.1361  -0.0173  -0.3929   0.2953
   5 C   :2py   -0.0091   0.0088   0.0083  -0.1742  -0.1298  -0.3160  -0.4913
   6 C   :2pz    0.0071  -0.0022  -0.0184  -0.1010   0.3843  -0.0735  -0.1180
   7 C   :2px    0.0023   0.0308   0.0303  -0.0266   0.0144   0.0761  -0.0423
   8 C   :2py   -0.0040   0.0026   0.0050   0.0455   0.0288   0.0469   0.0956
   9 C   :2pz   -0.0020  -0.0031  -0.0001   0.0259  -0.0830   0.0161   0.0054
  10 C   :3d2-  -0.0024   0.0015   0.0005  -0.0078  -0.0011   0.0014   0.0118
  11 C   :3d1-  -0.0008  -0.0001  -0.0010  -0.0025  -0.0040  -0.0054  -0.0123
  14 C   :3d2+  -0.0060  -0.0092  -0.0101   0.0058  -0.0041  -0.0105   0.0087
  15 C   :1s     0.0098   0.0132   0.0025  -0.0013  -0.0003  -0.0023   0.0009
  16 C   :1s    -0.3006  -0.4694  -0.5391   0.1414  -0.0293  -0.1370   0.0000
  17 C   :1s     0.1232   0.1065   0.1806  -0.0532  -0.0242   0.0365   0.0148
  18 C   :2px   -0.0459   0.1500  -0.1952  -0.0762   0.0305   0.3961  -0.3321
  19 C   :2py   -0.1365   0.0553   0.0153  -0.4330  -0.1814  -0.1341   0.1246
  20 C   :2pz    0.0831  -0.0440  -0.0564  -0.1547   0.4577  -0.1353   0.0202
  21 C   :2px    0.0163  -0.0194   0.0392   0.0073   0.0093  -0.0696   0.0709
  22 C   :2py    0.0517  -0.0166  -0.0006   0.0814   0.0391   0.0476  -0.0188
  23 C   :2pz   -0.0197   0.0175   0.0145   0.0224  -0.0806   0.0316   0.0088
  24 C   :3d2-  -0.0118   0.0005  -0.0070  -0.0147  -0.0033   0.0214   0.0177
  25 C   :3d1-   0.0214  -0.0032  -0.0013   0.0066   0.0129   0.0034  -0.0047
  26 C   :3d0    0.0027   0.0082  -0.0014   0.0146   0.0073  -0.0045  -0.0114
  28 C   :3d2+   0.0113  -0.0141   0.0112   0.0087   0.0086  -0.0041  -0.0021
  30 O   :1s    -0.8183   0.2441   0.1321  -0.1570   0.0999   0.1388   0.1056
  31 O   :1s     0.0884  -0.0157  -0.0268  -0.0444   0.0440   0.0395   0.0444
  32 O   :2px    0.0948   0.0222  -0.0286  -0.0265   0.1843   0.3585  -0.1223
  33 O   :2py    0.1167   0.0638   0.1932   0.0528   0.3449  -0.1293   0.1813
  34 O   :2pz    0.0554  -0.1168  -0.2738  -0.5154  -0.1618   0.1651   0.2319
  35 O   :2px   -0.0332   0.0032   0.0155   0.0082  -0.0054  -0.0078   0.0020
  36 O   :2py   -0.0281  -0.0011  -0.0153  -0.0292  -0.0276   0.0166   0.0110
  37 O   :2pz   -0.0417   0.0323   0.0572   0.0826   0.0347  -0.0333  -0.0162
  40 O   :3d0   -0.0014   0.0040   0.0060   0.0046   0.0114  -0.0021  -0.0021
  42 O   :3d2+   0.0037   0.0015   0.0072  -0.0005   0.0040  -0.0101   0.0070
  43 H   :1s    -0.0121  -0.2233   0.2182  -0.0042   0.2651   0.3473   0.2566
  44 H   :1s     0.0013   0.0961  -0.0765   0.0006  -0.0701  -0.0938  -0.0488
  46 H   :2py   -0.0011  -0.0147   0.0120  -0.0037   0.0081   0.0071  -0.0016
  48 H   :1s    -0.0160  -0.2155   0.2453   0.0056  -0.3090   0.2279   0.0164
  49 H   :1s     0.0078   0.0871  -0.0919   0.0046   0.0777  -0.0659  -0.0131
  51 H   :2py   -0.0003  -0.0006   0.0003  -0.0034  -0.0037  -0.0061  -0.0115
  52 H   :2pz   -0.0014  -0.0160   0.0151  -0.0018  -0.0067   0.0095  -0.0021
  53 H   :1s    -0.0130  -0.2145   0.2243  -0.2326   0.0645  -0.1184  -0.5511
  54 H   :1s     0.0068   0.0918  -0.0849   0.0673  -0.0121   0.0375   0.1357
  56 H   :2py    0.0012   0.0144  -0.0131   0.0078  -0.0061  -0.0020   0.0097
  58 H   :1s    -0.0622  -0.1598  -0.2580   0.3845  -0.0500   0.2018  -0.2223
  59 H   :1s     0.0301   0.0682   0.0972  -0.1259   0.0182  -0.0389   0.0463
  61 H   :2py   -0.0083  -0.0094  -0.0132   0.0099  -0.0040   0.0057  -0.0046
  63 H   :1s    -0.0655  -0.1669  -0.3001  -0.0534   0.3648  -0.0628  -0.1108
  64 H   :1s     0.0269   0.0676   0.1147   0.0217  -0.1100   0.0204   0.0230
  67 H   :2pz    0.0072   0.0116   0.0170  -0.0001  -0.0098  -0.0005   0.0051
  68 H   :1s    -0.3080   0.1679   0.2864   0.4114   0.1478  -0.2165  -0.1389
  69 H   :1s     0.1434  -0.0677  -0.1041  -0.1336  -0.0232   0.0719   0.0376
  70 H   :2px   -0.0102   0.0063   0.0066   0.0095   0.0116   0.0062  -0.0080
  71 H   :2py    0.0032   0.0004   0.0031  -0.0026   0.0132  -0.0035   0.0059
  72 H   :2pz   -0.0341   0.0140   0.0194   0.0199   0.0044  -0.0117  -0.0023

    Orbital        11       12       13       14       15       16       17
   1 C   :1s    -0.0019  -0.0003  -0.0006   0.0358  -0.0321   0.0496  -0.0042
   2 C   :1s    -0.0182   0.0658  -0.1285  -0.1466   0.1249  -0.1819  -0.0007
   3 C   :1s     0.0208   0.0365  -0.0808  -0.9400   1.0313  -1.4741   0.1493
   4 C   :2px   -0.0229   0.2335  -0.2988   0.1807  -0.1161   0.0813  -0.0172
   5 C   :2py    0.1375   0.1788  -0.0264   0.0270  -0.0391  -0.1192  -0.1872
   6 C   :2pz   -0.4868   0.1228   0.0650   0.0844   0.1975   0.1142  -0.2644
   7 C   :2px    0.0194  -0.0283   0.0443   0.3018  -0.1354   0.0063   0.0143
   8 C   :2py   -0.0356  -0.0816   0.0339  -0.0110  -0.0148  -0.1573  -0.2294
   9 C   :2pz    0.0871  -0.0498  -0.0713   0.1290   0.2159   0.1756  -0.3752
  10 C   :3d2-  -0.0050  -0.0132  -0.0035   0.0073   0.0095  -0.0077   0.0035
  12 C   :3d0    0.0111  -0.0078   0.0000  -0.0023  -0.0067  -0.0060   0.0027
  13 C   :3d1+   0.0175  -0.0135  -0.0055  -0.0077  -0.0077   0.0032  -0.0155
  15 C   :1s    -0.0005  -0.0020  -0.0016   0.0348  -0.0096  -0.0434  -0.0047
  16 C   :1s    -0.0061  -0.0314  -0.0206  -0.0499   0.1860   0.1658   0.1012
  17 C   :1s    -0.0227   0.0396  -0.0101  -0.9117   0.5537   1.3878   0.2409
  18 C   :2px    0.0260  -0.2441   0.2384  -0.0677   0.1834   0.0216   0.0934
  19 C   :2py   -0.1422  -0.2820  -0.1450   0.2084   0.0608  -0.2384  -0.1392
  20 C   :2pz    0.3080  -0.2865  -0.1057  -0.0501   0.1268   0.1183  -0.3911
  21 C   :2px    0.0175   0.0925  -0.0977  -0.0879   0.2577   0.0006   0.1391
  22 C   :2py    0.0510   0.1358   0.0283   0.1504  -0.0474  -0.3209  -0.2845
  23 C   :2pz   -0.0548   0.0864   0.0721  -0.0040   0.3143   0.1583  -0.5186
  24 C   :3d2-  -0.0090  -0.0030  -0.0180   0.0001  -0.0030   0.0067   0.0011
  25 C   :3d1-   0.0169   0.0185   0.0056   0.0086   0.0138   0.0015   0.0103
  26 C   :3d0    0.0026  -0.0239  -0.0046   0.0036   0.0021   0.0040   0.0009
  27 C   :3d1+   0.0256  -0.0112   0.0092   0.0016   0.0042  -0.0059   0.0120
  28 C   :3d2+   0.0069   0.0021  -0.0318   0.0039   0.0064  -0.0057   0.0018
  29 O   :1s    -0.0025  -0.0025  -0.0026   0.0123   0.0174  -0.0020   0.0100
  30 O   :1s     0.0778   0.2032  -0.0057  -0.1551  -0.1495   0.0561  -0.1290
  31 O   :1s     0.0365   0.0877   0.0334  -0.3564  -0.4492   0.0986  -0.3233
  32 O   :2px    0.1738   0.3612  -0.6745   0.1423   0.0504   0.0217   0.0682
  33 O   :2py    0.4085   0.3498   0.4112  -0.0118   0.0956  -0.0353   0.1067
  34 O   :2pz    0.0341   0.2621   0.2479   0.2250   0.2107  -0.0044   0.1025
  35 O   :2px   -0.0062   0.0063  -0.0454   0.0527   0.0053  -0.0107   0.0217
  36 O   :2py   -0.0089   0.0237   0.0169  -0.0623  -0.0054   0.0102   0.0761
  37 O   :2pz    0.0121  -0.0342   0.0164   0.1516   0.1281  -0.0001   0.1185
  42 O   :3d2+   0.0045   0.0003   0.0102   0.0001  -0.0029  -0.0029  -0.0029
  43 H   :1s    -0.3713  -0.1533   0.1263   0.0944   0.0603  -0.0553   0.0949
  44 H   :1s     0.0746   0.0145   0.0241   0.4448  -0.8215   0.1442  -0.0689
  48 H   :1s     0.4797  -0.2145  -0.0293   0.0004  -0.0470   0.0761  -0.1437
  49 H   :1s    -0.0993  -0.0064   0.0013   0.7300   0.0436   1.0223  -0.9163
  50 H   :2px    0.0070  -0.0010  -0.0065   0.0103   0.0050  -0.0026   0.0057
  53 H   :1s    -0.1061   0.1946   0.0758   0.0056  -0.0885   0.0665   0.0478
  54 H   :1s     0.0364   0.0011   0.0462   0.3460  -0.6418   0.8150   0.8741
  58 H   :1s    -0.0038   0.3115   0.3547   0.0224   0.0320  -0.0687  -0.1147
  59 H   :1s     0.0027  -0.0230  -0.0319   0.6084  -0.2124  -0.9819  -1.3167
  60 H   :2px    0.0005  -0.0117   0.0005  -0.0030   0.0052  -0.0039   0.0023
  63 H   :1s     0.3006  -0.4364  -0.0315  -0.0112  -0.0859  -0.0908   0.1066
  64 H   :1s    -0.0640   0.0673  -0.0073   0.3299  -0.9722  -0.8894   0.8532
  68 H   :1s    -0.0181  -0.3192  -0.0092   0.1175   0.1716  -0.0245   0.0728
  69 H   :1s     0.0459   0.1081   0.0030   0.7356   0.8710  -0.0307   0.4615
  70 H   :2px    0.0041   0.0047  -0.0251   0.0025   0.0059  -0.0020   0.0029
  71 H   :2py    0.0154   0.0099   0.0144  -0.0020   0.0102   0.0013   0.0049
  72 H   :2pz   -0.0023  -0.0111   0.0077   0.0026   0.0040  -0.0002   0.0081

    Orbital        18       19       20       21       22       23
   1 C   :1s    -0.0104   0.0022  -0.0368  -0.0466  -0.0056  -0.0314
   2 C   :1s     0.0471  -0.0088   0.0033   0.0196  -0.0278  -0.2021
   3 C   :1s     0.2906  -0.0495   0.7711   1.3295  -0.0645  -0.5085
   4 C   :2px   -0.0281   0.0264   0.0545   0.4296  -0.0687  -0.6090
   5 C   :2py   -0.4517  -0.2066   0.0253  -0.0532   0.1597   0.2314
   6 C   :2pz    0.2182  -0.3535  -0.0508   0.0631   0.2120  -0.1620
   7 C   :2px   -0.0070   0.0231   0.6594   1.7369   0.1099   0.8027
   8 C   :2py   -0.9301  -0.5298   0.5043   0.0164  -0.4968  -0.7434
   9 C   :2pz    0.4816  -0.8915  -0.3306   0.0038  -0.6315   0.5659
  10 C   :3d2-  -0.0038   0.0060  -0.0316   0.0132  -0.0522  -0.0106
  11 C   :3d1-   0.0002   0.0006   0.0001  -0.0078   0.0583   0.0546
  12 C   :3d0    0.0028  -0.0022   0.0031   0.0072  -0.0769   0.0828
  13 C   :3d1+   0.0025   0.0104   0.0109  -0.0032  -0.0880   0.0279
  14 C   :3d2+  -0.0059  -0.0018  -0.0095  -0.0186  -0.0622  -0.0497
  15 C   :1s     0.0098   0.0018   0.0337   0.0299  -0.0102  -0.0432
  16 C   :1s    -0.1614   0.0164  -0.2477  -0.0673  -0.0405  -0.1252
  17 C   :1s    -0.5723   0.0192  -1.3007  -1.2468   0.0311   0.0764
  18 C   :2px   -0.0601   0.0201   0.0705   0.5901   0.1006   0.6238
  19 C   :2py   -0.0445   0.1825  -0.4394   0.0217  -0.0249  -0.0117
  20 C   :2pz   -0.0106   0.3506   0.1843  -0.0224  -0.0281   0.0479
  21 C   :2px   -0.1608   0.0618   0.1961   1.6433  -0.1819  -1.3293
  22 C   :2py    0.2717   0.4017  -1.1480   0.1565   0.0734   0.5700
  23 C   :2pz   -0.2406   0.8128   0.5102  -0.0445  -0.0863  -0.4289
  24 C   :3d2-   0.0189   0.0094   0.0117  -0.0098   0.0455   0.0077
  25 C   :3d1-  -0.0042  -0.0001  -0.0208  -0.0002  -0.0303   0.0531
  26 C   :3d0   -0.0022  -0.0008  -0.0106  -0.0039   0.0700   0.0496
  27 C   :3d1+  -0.0113   0.0109  -0.0037  -0.0009   0.0910  -0.0193
  28 C   :3d2+  -0.0055   0.0023  -0.0130   0.0078   0.0304  -0.0597
  29 O   :1s     0.0058   0.0007  -0.0303  -0.0010   0.0044   0.0146
  30 O   :1s     0.0849  -0.0357   0.1262  -0.0546   0.0459   0.0188
  31 O   :1s    -0.0132  -0.0527   0.7263  -0.0650   0.0090  -0.2073
  32 O   :2px   -0.1014   0.0142  -0.1343  -0.0926   0.0057   0.0625
  33 O   :2py   -0.1009  -0.0861  -0.3785   0.1300   0.0982   0.0257
  34 O   :2pz    0.0353  -0.0386   0.3288  -0.1672   0.0407   0.0023
  35 O   :2px   -0.0022   0.0020  -0.1924  -0.1461   0.0283   0.2059
  36 O   :2py   -0.0133  -0.0534  -0.3600   0.1389  -0.0199   0.0046
  37 O   :2pz    0.0100  -0.0647   0.3149  -0.1380   0.0227   0.0440
  38 O   :3d2-  -0.0008  -0.0028  -0.0001  -0.0107   0.0046   0.0028
  42 O   :3d2+  -0.0003   0.0016   0.0004   0.0008  -0.0033  -0.0101
  43 H   :1s    -0.1891   0.0004  -0.0804   0.2409   0.0050  -0.2812
  44 H   :1s    -1.9146   0.0669   0.4102   0.0911  -0.0256   0.1262
  45 H   :2px   -0.0026   0.0010   0.0310   0.0049  -0.0023  -0.0084
  46 H   :2py   -0.0080  -0.0055   0.0023  -0.0062  -0.0229   0.0039
  47 H   :2pz    0.0046  -0.0070   0.0000   0.0035  -0.0358   0.0050
  48 H   :1s     0.0765  -0.1083   0.0756   0.1177  -0.9536   0.7254
  49 H   :1s     0.5626  -1.2734  -0.3851   0.4957   0.8005  -0.4367
  50 H   :2px    0.0033  -0.0066  -0.0063   0.0076   0.0370   0.0202
  51 H   :2py   -0.0044  -0.0027   0.0029  -0.0024  -0.0241  -0.0190
  52 H   :2pz    0.0026  -0.0052  -0.0019  -0.0054   0.0250  -0.0107
  53 H   :1s     0.0999   0.1228   0.1251   0.0765   1.0687   0.4636
  54 H   :1s     0.8226   1.3509  -0.2200   0.3205  -0.8199  -0.2228
  55 H   :2px    0.0035   0.0072  -0.0148   0.0140  -0.0310   0.0255
  56 H   :2py   -0.0051  -0.0026   0.0004   0.0039   0.0317  -0.0102
  57 H   :2pz    0.0012  -0.0065   0.0008   0.0027  -0.0029   0.0221
  58 H   :1s     0.0140   0.0092  -0.1408  -0.0298  -0.6120   0.4495
  59 H   :1s     0.3668   1.0865  -0.3581  -0.3396   0.5904  -0.2165
  60 H   :2px   -0.0048  -0.0078  -0.0039   0.0137  -0.0646  -0.0242
  61 H   :2py   -0.0009   0.0045  -0.0090   0.0044   0.0326   0.0018
  62 H   :2pz    0.0019   0.0029   0.0176   0.0045   0.0006  -0.0207
  63 H   :1s     0.0368  -0.0390  -0.1670  -0.0826   0.7177   0.2904
  64 H   :1s     0.5676  -1.2629   0.1231  -0.4245  -0.6170  -0.0089
  65 H   :2px   -0.0050   0.0073   0.0011   0.0101   0.0631  -0.0408
  66 H   :2py   -0.0010   0.0008  -0.0146  -0.0027  -0.0097   0.0275
  67 H   :2pz   -0.0025   0.0055  -0.0043  -0.0049   0.0294  -0.0076
  68 H   :1s     0.0133   0.0570   0.0440  -0.0474   0.0285   0.1933
  69 H   :1s    -0.1132   0.1362   0.6900  -0.4335  -0.1649  -0.1615
  70 H   :2px    0.0021   0.0081  -0.0138  -0.0150  -0.0247   0.0139
  71 H   :2py   -0.0071   0.0031  -0.0037   0.0065  -0.0250  -0.0063

  Total CPU  time used in SIRIUS :  49.16 seconds
  Total wall time used in SIRIUS :  49.23 seconds

 
     Date and time (Linux)  : Fri Dec 17 09:16:35 2021
     Host name              : node339.cluster                         


                     .---------------------------------------.
                     | End of Wave Function Section (SIRIUS) |
                     `---------------------------------------'



        *****************************************************************
        ******** Output from **PROPE input processing for ABACUS ********
        *****************************************************************



 The following molecular properties will be calculated in this run:
 ------------------------------------------------------------------

 Default print level:        0

      The molecular gradient
      The molecular Hessian
      Vibrational analysis
      Dipole moment gradient
      Direct calculation - no two-electron integrals written or read.
      Two-electron integrals will be calculated in parallel
      Natural orbital connection is used
      for perturbation dependent basis sets.

 Center of mass dipole origin  :    4.155541    0.939569   -0.601431

 Center of mass gauge origin   :    4.155541    0.939569   -0.601431


                 .------------------------------------------------.
                 | Starting in Static Property Section (ABACUS) - |
                 `------------------------------------------------'


 
     Date and time (Linux)  : Fri Dec 17 09:16:35 2021
     Host name              : node339.cluster                         


            +---------------------------------------------------------+
            ! Gradient elements calculated directly and from symmetry !
            +---------------------------------------------------------+



        Coordinate    Direct calc.     Tra.-rot. sym.   Difference
        ----------------------------------------------------------

        C    x       -5.9474522524    -5.6259199081    -0.3215323443
        C    y       -1.2683474220    -1.1451690623    -0.1231783597
        C    y       -4.4871810221    -4.4928061204     0.0056250983
        O    x        7.6998155279     7.3782846698     0.3215308581
        O    y        9.2956032308     9.1780487901     0.1175544408
        O    z       -0.1961084810    -0.1961070911    -0.0000013899



 WARNING from TRAROT:

 Largest deviation from tra-rot symmetry is in gradient element  1:  3.22E-01


   ***************************************************************************
   ************************ FINAL RESULTS from ABACUS ************************
   ***************************************************************************


 
     Date and time (Linux)  : Fri Dec 17 09:23:00 2021
     Host name              : node339.cluster                         

 WARNING: warnings have been issued, please check the output above !


                             Molecular geometry (au)
                             -----------------------

 C          1.8814110371            0.1384667017           -0.1121177326
 C          4.7664909401            0.1736892918           -0.1746814831
 O          5.7416722262            2.3827094124           -1.3453345334
 H          1.1727813204           -1.5387202385            0.9077210284
 H          1.0992660023            0.0842849618           -2.0496404831
 H          1.1605219848            1.8527119063            0.8301333656
 H          5.4842944061           -1.5646405440           -1.1041530551
 H          5.5244860707            0.1836036096            1.7674877714
 H          5.1220393220            2.3742953634           -3.0612685201





                        Molecular wave function and energy
                        ----------------------------------

     Spatial symmetry   1 ( A   )
     Spin multiplicity  1
     2 * M_S            0
     State number       1
     Total charge       0

     Total energy       -154.9642645863 au (Hartrees)
                         -4216.79214247 eV
                           -406858.6139 kJ/mol
                            -97241.5425 kcal/mol


                   Scalar Breit-Pauli relativistic corrections
                   -------------------------------------------

     Darwin correction:                          0.3197439740 au
     Mass-velocity correction:                  -0.4005544691 au

     Total relativistic correction:             -0.0808104951 au ( 0.0521%)
     Non-relativistic + relativistic energy:  -155.0450750814 au



      (Note that these corrections are NOT included in the results below.)


                             Molecular gradient (au)
                             -----------------------

 C         -5.9474522524           -1.2683474220            0.7216823520
 C          1.7016588115           -4.4871810221            1.8690439270
 O          7.6998155279            9.2956032308           -0.1961084810
 H         -1.4467263143           -2.7833670833            1.7143073523
 H         -1.7675565007           -0.2750776064           -3.1670298179
 H         -1.6598131295            2.7850983248            1.7298737682
 H          1.3639040280           -3.3091744216           -1.4676001147
 H          1.5176279945           -0.2206576080            3.7985034846
 H         -1.4614596513            0.2631047872           -5.0026738604





                              Molecular Hessian (au)
                              ----------------------

           C    x      C    y      C    z      C    x      C    y      C    z

 C    x   39.815184
 C    y   23.113188   37.117667
 C    z   -2.189050   -1.877821   11.712599

 C    x   -0.660859    0.615715   -0.268621   10.797962
 C    y  -22.311286  -43.221579    2.206398   -2.752156   96.160207
 C    z    1.017469    2.309454   -5.116482    1.325705   -3.769466   14.632052

 O    x  -33.142586  -26.474285    2.277066   -4.343802   28.417678   -2.770694
 O    y   -0.506058   14.254453   -0.345240    2.708750  -52.744186    0.636379
 O    z    2.990673    0.768236   -0.296809   -1.412286    0.979929   -5.193843

 H    x   -3.890067    0.450568   -0.321084    0.103648    0.115673   -0.026511
 H    y    0.318076   -1.638586   -0.786830    0.117767   -1.147086   -0.042827
 H    z   -1.058636   -0.819746   -2.450616   -0.074728   -1.884234   -0.038710

 H    x   -0.634152    1.766501    0.790580    0.091374   -1.853554    0.027290
 H    y    0.018030   -4.222570    0.072248    0.016170    3.398638    0.010633
 H    z   -0.045827   -0.486178   -1.281211    0.130440    0.532927    0.047834

 H    x   -3.974598   -2.331892   -0.332580    0.093560    1.825030   -0.040634
 H    y   -0.385336   -1.513135    0.758409   -0.120900   -1.178215    0.053387
 H    z   -1.056329   -0.486365   -2.669933   -0.078795    3.361236    0.004716

 H    x    1.037093    1.588076    0.053601   -3.068835   -2.199301   -0.299228
 H    y    0.039961    0.038849   -0.015061   -0.606446   -0.121374    0.799562
 H    z    0.769937    1.217280    0.020857   -0.269224   -2.406008   -2.914029

 H    x   -2.191315   -1.767327    0.010290   -3.099437    1.830270    0.729079
 H    y   -0.108655    1.196975   -0.008385   -0.025836   -7.202020   -0.066200
 H    z    1.012886    0.579447    0.046343    0.705443   -0.243000   -1.421648

 H    x    3.641299    3.057847   -0.020203    0.086389   -3.265994    0.037525
 H    y   -0.177920   -2.012075   -0.003717    0.046935    5.798002    0.069079
 H    z   -1.441123   -1.204308    0.035252   -0.057935    1.222219    0.000111


           O    x      O    y      O    z      H    x      H    y      H    z

 O    x   44.807341
 O    y   -2.314795   46.501574
 O    z   -2.850148   -1.630164    6.966994

 H    x    1.154965    0.088380   -0.042435    2.556358
 H    y    0.216963    1.200591   -0.046310   -0.666770    1.562592
 H    z    0.735192    1.815130   -0.018651    0.418124    0.875606    2.457820

 H    x   -2.108147    0.166698    0.027025    0.033328    0.004564    0.009982
 H    y    0.044723   -2.316805    0.011236    0.011919    0.028584    0.030942
 H    z    0.748942    0.041213   -0.030084   -0.002182   -0.009893    0.014004

 H    x    1.201710   -0.095969   -0.068466    0.028873   -0.005923   -0.008843
 H    y   -0.116834    0.975915   -0.004189    0.007663    0.008759   -0.021612
 H    z    0.681106   -2.070198   -0.040105   -0.009267    0.020911    0.030680

 H    x   -1.032651   -0.138916   -0.007471    0.016363    0.008953   -0.015935
 H    y   -0.149064   -1.184541    0.136374   -0.009929   -0.016690    0.008585
 H    z   -0.747068    2.104245    0.005596   -0.015174   -0.007368    0.001816

 H    x    2.212383   -0.135869    0.090612   -0.000550    0.007215   -0.004901
 H    y    0.064528    2.512955    0.030979   -0.000096    0.001029   -0.001758
 H    z   -0.903874   -0.385565    0.215545    0.008868    0.012845   -0.006403

 H    x   -8.749211    0.227780    1.272497   -0.002917   -0.000846   -0.000253
 H    y    0.135836   -9.199956   -0.246092    0.002593    0.000807   -0.002913
 H    z    2.829478   -0.165800   -1.608644   -0.010338   -0.016134    0.010060


           H    x      H    y      H    z      H    x      H    y      H    z

 H    x    2.525887
 H    y   -0.137855    3.095002
 H    z   -0.891775   -0.060520    1.214399

 H    x    0.055893   -0.008671    0.002449    2.594456
 H    y   -0.006503    0.034449   -0.013570    0.677893    1.620965
 H    z    0.004550   -0.055337   -0.001619    0.511619   -0.819768    2.660983

 H    x   -0.048983    0.022411   -0.011828    0.054095   -0.074891   -0.044039
 H    y    0.025961    0.008956   -0.002331   -0.084352    0.042722    0.042635
 H    z   -0.014450    0.005126    0.013008   -0.042610    0.038056   -0.004302

 H    x    0.052181    0.003894    0.077755   -0.046924    0.018838   -0.013795
 H    y   -0.001435   -0.023702    0.000947    0.026068    0.009699    0.005719
 H    z    0.085694    0.004913    0.057513   -0.013868   -0.004111    0.010287

 H    x    0.032618    0.029378   -0.007975   -0.007065    0.000070    0.004951
 H    y    0.035623   -0.002552   -0.002594   -0.002184   -0.001160    0.001166
 H    z   -0.038894   -0.019241   -0.033844   -0.007067    0.013399    0.009292


           H    x      H    y      H    z      H    x      H    y      H    z

 H    x    2.927541
 H    y    0.797568    1.219352
 H    z    0.320024   -0.890548    2.927104

 H    x    0.099020   -0.007134    0.002191    3.004068
 H    y   -0.007396    0.048877   -0.088476    0.060853    3.464953
 H    z    0.000827   -0.090425   -0.044984   -0.917848    0.189725    0.998574

 H    x    0.016357   -0.006566   -0.003625   -0.029426   -0.008031    0.021872
 H    y    0.003496   -0.036150    0.027692   -0.010741   -0.008767   -0.063828
 H    z    0.004051    0.011209   -0.005065    0.026617   -0.062551    0.144772


           H    x      H    y      H    z

 H    x    5.011955
 H    y   -0.033637    5.461851
 H    z   -1.304788    0.221207    1.448066





                                  Dipole moment
                                  -------------

                 au               Debye          C m (/(10**-30)
              0.617075           1.568447           5.231777


                             Dipole moment components
                             ------------------------

                 au               Debye          C m (/(10**-30)

      x     -0.38186013        -0.97059158        -3.23754502
      y     -0.39502328        -1.00404897        -3.34914688
      z     -0.28092818        -0.71404815        -2.38180826


   Units:   1 a.u. =   2.54175 Debye 
            1 a.u. =   8.47835 (10**-30) C m (SI)




                           Dipole moment gradient (au)
                           ---------------------------

                       Ex             Ey             Ez

        C    x    -0.11348524    -0.04101632     0.04859239
        C    y     0.01347805     0.04724889     0.01911527
        C    z     0.02218424    -0.00046053     0.08420518

        C    x     0.53775610     0.15161952    -0.13817805
        C    y     0.12333000     0.68910376    -0.15227000
        C    z    -0.13909522    -0.17759194     0.40877274

        O    x    -0.62308144    -0.12252360     0.19906033
        O    y    -0.14830087    -0.75614841     0.20700323
        O    z     0.22642240     0.23751722    -0.41104615

        H    x     0.00726587    -0.04075357     0.02889525
        H    y    -0.06996285    -0.06899976     0.08640123
        H    z     0.04325703     0.08376452     0.01909680

        H    x    -0.00995952    -0.00175744    -0.03517236
        H    y     0.00988153     0.06315976     0.00194300
        H    z    -0.08481007     0.00178556    -0.14392097

        H    x     0.00157389     0.03252693     0.01618331
        H    y     0.07849999    -0.06271651    -0.07678757
        H    z     0.02103632    -0.06614760     0.02937748

        H    x    -0.06200915     0.05318067     0.05997341
        H    y     0.06330224    -0.19526439    -0.03899490
        H    z     0.06420529    -0.09022046    -0.02905234

        H    x    -0.02744870    -0.01238587    -0.06450885
        H    y    -0.02738718     0.02452273    -0.00065048
        H    z    -0.06903479     0.02633084    -0.12824393

        H    x     0.28938819    -0.01889033    -0.11484541
        H    y    -0.04284090     0.25909393    -0.04575980
        H    z    -0.08416521    -0.01497761     0.17081120





                            +-------------------------+
                            ! APT Population Analysis !
                            +-------------------------+


      [ Reference : J. Cioslowski, J.Am.Chem.Soc. 111 (1989) 8333 ]

                            C         0.005990
                            C         0.545211
                            O        -0.596759
                            H        -0.014212
                            H        -0.030240
                            H        -0.010588
                            H        -0.095442
                            H        -0.043723
                            H         0.239764



   Interatomic separations (in Angstrom):
   --------------------------------------

            C           C           O           H           H           H     
            ------      ------      ------      ------      ------      ------
 C     :    0.000000
 C     :    1.527191    0.000000
 O     :    2.451357    1.420048    0.000000
 H     :    1.104344    2.183053    3.401940    0.000000
 H     :    1.106054    2.180056    2.766475    1.785574    0.000000
 H     :    1.103199    2.171032    2.698311    1.795150    1.788602    0.000000
 H     :    2.173204    1.110131    2.097170    2.517763    2.529078    3.090810
 H     :    2.169430    1.103265    2.020106    2.518068    3.092990    2.521724
 H     :    2.603105    1.929971    0.965432    3.614757    2.507331    2.951494

            H           H           H     
            ------      ------      ------
 H     :    0.000000
 H     :    1.779192    0.000000
 H     :    2.335390    2.814008    0.000000


  Max    interatomic separation is    3.6148 Angstrom (    6.8309 Bohr)
  between atoms    9 and    4, "H     " and "H     ".

  Min HX interatomic separation is    0.9654 Angstrom (    1.8244 Bohr)

  Min YX interatomic separation is    1.4200 Angstrom (    2.6835 Bohr)


  Bond distances (Angstrom):
  --------------------------

                  atom 1     atom 2       distance
                  ------     ------       --------
  bond distance:  C          C            1.527191
  bond distance:  O          C            1.420048
  bond distance:  H          C            1.104344
  bond distance:  H          C            1.106054
  bond distance:  H          C            1.103199
  bond distance:  H          C            1.110131
  bond distance:  H          C            1.103265
  bond distance:  H          O            0.965432


  Bond angles (degrees):
  ----------------------

                  atom 1     atom 2     atom 3         angle
                  ------     ------     ------         -----
  bond angle:     C          C          H            111.091
  bond angle:     C          C          H            110.751
  bond angle:     C          C          H            110.209
  bond angle:     H          C          H            107.764
  bond angle:     H          C          H            108.817
  bond angle:     H          C          H            108.113
  bond angle:     C          C          O            112.507
  bond angle:     C          C          H            109.971
  bond angle:     C          C          H            110.079
  bond angle:     O          C          H            111.376
  bond angle:     O          C          H            105.685
  bond angle:     H          C          H            106.994
  bond angle:     C          O          H            106.444




   ****************************************************************************
   *************** ABACUS - ROTATIONAL AND VIBRATIONAL ANALYSIS ***************
   ****************************************************************************


 Norm of (unprojected) molecular gradient (au) :    17.55703906

 WARNING: Vibrational analysis performed at a non-equilibrium geometry,
 better results may be obtained using .INTERN
 (this will correct Hessian for rotation coordinates).



 Conversion factors used:

    Hartree to (cm)-1      : 219474.62934
    a.m.u.  to a.u.        :   1822.88848
    Bohr    to Angstrom    :  0.529177211
    a.u.    to A**4amu-1   :   142.943572
    a.u.    to km (mol)-1  :      974.864


 Vibrational analysis for parent molecule only.
  Norm of projected gradient    17.556923


                         Isotopic Molecule No. 1
                         ======================= 


                                 Isotopic Masses
                                 ---------------

                           C          12.000000
                           C          12.000000
                           O          15.994915
                           H           1.007825
                           H           1.007825
                           H           1.007825
                           H           1.007825
                           H           1.007825
                           H           1.007825

                       Total mass:    46.041865 amu
                       Natural abundance:  97.490 %

 Center-of-mass coordinates (a.u.):    4.155541    0.939569   -0.601431


 Principal moments of inertia (u*A**2) and principal axes
 --------------------------------------------------------

   IA      14.862369          0.832089    0.477228   -0.282634
   IB      55.005125         -0.554318    0.698106   -0.453188
   IC      62.301871         -0.018966    0.533762    0.845422


 Rotational constants
 --------------------

               A                   B                   C

          34003.9342           9187.8531           8111.7790 MHz
            1.134249            0.306474            0.270580 cm-1


  Vibrational Frequencies and IR Intensities
  ------------------------------------------

  mode   irrep        frequency             IR intensity
  ============================================================
                  cm-1       hartrees     km/mol   (D/A)**2/amu
  ------------------------------------------------------------
   1      A     19912.46    0.090728     60.913   1.4415
   2      A     14154.83    0.064494    111.348   2.6351
   3      A     12055.30    0.054928     68.937   1.6314
   4      A     10885.15    0.049596     23.441   0.5548
   5      A     10131.15    0.046161     10.453   0.2474
   6      A      9938.67    0.045284      4.774   0.1130
   7      A      9823.47    0.044759     15.926   0.3769
   8      A      9705.18    0.044220      5.220   0.1235
   9      A      9213.47    0.041980      1.563   0.0370
  10      A      9100.41    0.041465      2.693   0.0637
  11      A      8810.91    0.040145      3.041   0.0720
  12      A      8650.54    0.039415      1.458   0.0345
  13      A      7273.66    0.033141     13.327   0.3154
  14      A      6458.79    0.029428     29.083   0.6883
  15      A      5793.26    0.026396      0.726   0.0172
  16      A      4882.28    0.022245     43.868   1.0382
  17      A      4742.19    0.021607     38.230   0.9047
  18      A      4384.31    0.019976     25.536   0.6043
  19      A      3953.80    0.018015     22.354   0.5290
  20      A      3159.03    0.014394     14.223   0.3366
  21      A      2594.37    0.011821     40.583   0.9604



  Normal Coordinates (bohrs*amu**(1/2)):
  --------------------------------------


                1  ****     2  ****     3  ****     4  ****     5  **** 
  ----------------------------------------------------------------------

    C      x   -0.076751    0.113076    0.012487    0.110128    0.021734
    C      y   -0.108715    0.038841    0.045089    0.033578    0.004876
    C      z    0.004239   -0.000895    0.007112    0.022851    0.022955

    C      x   -0.006805    0.003137   -0.006272    0.015565   -0.111909
    C      y    0.199306    0.066486   -0.059624    0.045636   -0.001017
    C      z   -0.005067    0.003315   -0.001197   -0.013939    0.005344

    O      x    0.069987   -0.101583    0.024285   -0.009445    0.013025
    O      y   -0.077354   -0.094557   -0.032318   -0.010256   -0.008178
    O      z   -0.003118    0.009397   -0.013923   -0.007067    0.004900

    H      x    0.027940   -0.094440   -0.003441   -0.272449   -0.135554
    H      y   -0.013719   -0.026933   -0.042408   -0.045442   -0.016493
    H      z   -0.020970   -0.075525   -0.019484   -0.257958   -0.123770

    H      x   -0.046127   -0.002557    0.079567   -0.066288   -0.025091
    H      y    0.094746    0.038659   -0.226366    0.041651    0.046428
    H      z    0.012889    0.004858   -0.043868   -0.015200   -0.005492

    H      x    0.074971   -0.098354   -0.105094   -0.292075   -0.117928
    H      y   -0.008564   -0.048400   -0.026882   -0.084853    0.026137
    H      z    0.069811    0.036660   -0.118701   -0.091254   -0.157230

    H      x   -0.051556    0.023766    0.097202   -0.006473    0.546031
    H      y    0.003508    0.012800    0.022746   -0.028025    0.160660
    H      z   -0.057257   -0.017539    0.109200    0.079622    0.094154

    H      x    0.066643   -0.071865   -0.073923   -0.253450    0.601060
    H      y   -0.132864   -0.130905    0.279935   -0.343297   -0.078308
    H      z   -0.017471    0.028210    0.045849    0.112674   -0.217060

    H      x   -0.187732    0.471924   -0.453731   -0.455964   -0.001547
    H      y    0.205900    0.401346    0.678957   -0.320441   -0.054579
    H      z    0.072341   -0.154618    0.177548    0.178166   -0.005326


                6  9939     7  9823     8  9705     9  9213    10  9100 
  ----------------------------------------------------------------------

    C      x    0.034389   -0.041347    0.028908    0.000421    0.019486
    C      y   -0.101983    0.018103   -0.008516   -0.006340   -0.000511
    C      z    0.030991    0.043166   -0.097086   -0.023623   -0.014538

    C      x    0.019077    0.004823   -0.021051    0.013252    0.004924
    C      y   -0.031795    0.006690   -0.004067   -0.010930    0.013755
    C      z   -0.030795   -0.086035   -0.032761    0.044584    0.001678

    O      x   -0.003074   -0.005055    0.009721    0.002828    0.029636
    O      y    0.021726    0.027421    0.006250    0.029463    0.015558
    O      z    0.003481    0.006914    0.007808   -0.007217    0.007682

    H      x   -0.190901    0.218641   -0.101785    0.041470   -0.221070
    H      y    0.190965   -0.154588    0.288887    0.270829   -0.014635
    H      z    0.082230   -0.115534    0.441529    0.472577   -0.171159

    H      x   -0.224716    0.085719   -0.220777    0.113045   -0.165184
    H      y    0.575267   -0.112422    0.067479   -0.197275   -0.175412
    H      z    0.057554   -0.050643    0.146168   -0.026532    0.098832

    H      x   -0.082332    0.120853   -0.010843   -0.290597   -0.341536
    H      y    0.237436    0.090403   -0.231010    0.053899   -0.255479
    H      z   -0.406143   -0.102588    0.461864   -0.316522    0.160811

    H      x   -0.085812   -0.058566    0.261837   -0.215366   -0.517947
    H      y   -0.104318   -0.310964   -0.050119   -0.021269   -0.235113
    H      z    0.168134    0.687756    0.353828   -0.157752    0.118680

    H      x   -0.043439    0.039872   -0.094677    0.157629    0.411202
    H      y    0.212167   -0.329587   -0.057298   -0.516991    0.278692
    H      z    0.034883   -0.008283    0.034013   -0.133936   -0.136135

    H      x    0.039389    0.108610   -0.081585   -0.013869    0.073532
    H      y    0.136553    0.086772    0.032705    0.148826   -0.002663
    H      z    0.005761   -0.009999   -0.015245    0.027115   -0.039819


               11  8811    12  8651    13  7274    14  6459    15  5793 
  ----------------------------------------------------------------------

    C      x    0.007880    0.010059   -0.017728   -0.072377    0.060086
    C      y   -0.013514   -0.044283   -0.012464   -0.015256    0.003015
    C      z    0.008632    0.011107    0.095969    0.060718   -0.034697

    C      x    0.002753    0.011796   -0.027455    0.027979   -0.055822
    C      y   -0.001026   -0.001798    0.025798   -0.023096    0.024429
    C      z   -0.002357   -0.003331   -0.158033    0.025691   -0.066695

    O      x   -0.039890   -0.006212    0.041938    0.028417   -0.028119
    O      y   -0.010765    0.030828   -0.008062    0.034800   -0.021674
    O      z   -0.005138    0.000412    0.058163   -0.084335    0.006485

    H      x   -0.207475   -0.616078   -0.076567   -0.116657    0.131902
    H      y    0.156026    0.247408    0.190174    0.143239   -0.061369
    H      z    0.068967   -0.133434    0.154638   -0.160258    0.205189

    H      x    0.723819   -0.040099    0.134373   -0.049213   -0.042427
    H      y    0.295692   -0.427288   -0.258306    0.052718   -0.114497
    H      z   -0.377141    0.030808   -0.103537   -0.144641   -0.038545

    H      x    0.063114    0.473719   -0.262675   -0.181326    0.079714
    H      y   -0.074163    0.254314   -0.146706   -0.321585    0.245917
    H      z    0.221917    0.023633   -0.119122    0.077447    0.004768

    H      x   -0.110234   -0.003800    0.094514    0.170198   -0.112100
    H      y   -0.072720   -0.006974    0.118072    0.026170   -0.059535
    H      z    0.085617   -0.018698   -0.099277   -0.005942   -0.078274

    H      x    0.162915   -0.011154   -0.145468   -0.139024    0.234545
    H      y    0.073884   -0.084772    0.168402   -0.096788    0.129677
    H      z   -0.031582   -0.015766    0.220292    0.031075    0.365569

    H      x   -0.125674    0.035769    0.128220    0.393670    0.103864
    H      y   -0.034742    0.076727   -0.102462    0.100605   -0.122976
    H      z    0.039049    0.014328   -0.237091    0.511935    0.645624


               16  4882    17  4742    18  4384    19  3954    20  3159 
  ----------------------------------------------------------------------

    C      x    0.034496   -0.035106    0.016645   -0.019088   -0.036408
    C      y   -0.042104   -0.032242   -0.003162    0.020704    0.005063
    C      z    0.025250   -0.030093    0.005536   -0.011516   -0.007893

    C      x   -0.013664    0.027975   -0.015407    0.079267    0.043095
    C      y   -0.013530   -0.023732    0.000747   -0.002921   -0.032640
    C      z    0.009504   -0.015120    0.024910   -0.029817    0.022615

    O      x    0.015551   -0.004432   -0.027996   -0.049923    0.002932
    O      y    0.000407   -0.002703   -0.001940   -0.053670    0.013519
    O      z    0.000597   -0.013674    0.011376    0.035197   -0.027974

    H      x    0.158811    0.073738    0.364775    0.155150   -0.107001
    H      y    0.074444    0.188907    0.605266    0.342764   -0.122919
    H      z   -0.062858   -0.278755   -0.337841   -0.105205   -0.013152

    H      x   -0.224057    0.328247   -0.115907   -0.113182   -0.194634
    H      y   -0.103350   -0.005843   -0.037220   -0.023477    0.088421
    H      z   -0.531585    0.567896   -0.120593   -0.013830   -0.259215

    H      x   -0.266412   -0.341799    0.075803    0.170160   -0.001302
    H      y    0.485439    0.376741   -0.086491   -0.204789   -0.022646
    H      z    0.366263    0.223034   -0.011163   -0.167170    0.076759

    H      x   -0.058007    0.031949    0.120576   -0.188150   -0.073557
    H      y    0.183068    0.179867   -0.435765    0.584783    0.256375
    H      z    0.086256    0.053446   -0.170242    0.239762    0.047855

    H      x   -0.116073    0.031061    0.107441    0.118915    0.312169
    H      y    0.010550   -0.057077    0.002813    0.046867   -0.190631
    H      z   -0.248969    0.179859    0.194157   -0.181183    0.689987

    H      x    0.010883    0.032051   -0.123110   -0.067128   -0.061841
    H      y    0.005801    0.026766    0.010940   -0.106109    0.105198
    H      z   -0.032392    0.009881   -0.097385    0.161175   -0.273567


               21  2594 
  ----------------------

    C      x   -0.091626
    C      y    0.048119
    C      z   -0.017431

    C      x    0.173542
    C      y    0.018352
    C      z   -0.028419

    O      x   -0.057329
    O      y   -0.037731
    O      z    0.040452

    H      x   -0.162616
    H      y   -0.079896
    H      z    0.112193

    H      x   -0.118891
    H      y   -0.031509
    H      z   -0.098851

    H      x   -0.190729
    H      y    0.190543
    H      z    0.011452

    H      x    0.315844
    H      y   -0.284392
    H      z   -0.096865

    H      x    0.151481
    H      y    0.093250
    H      z   -0.092260

    H      x   -0.060597
    H      y   -0.080635
    H      z    0.068261




  Dipole Gradient in Normal Coordinate Basis (D/(A*amu**(1/2)))
  -------------------------------------------------------------


  mode           dMA/dQi        dMB/dQi        dMC/dQi
  ----------------------------------------------------
   1           -0.330861       1.152282      -0.065693
   2            0.987035       1.078233      -0.705897
   3           -1.000982       0.733313       0.302846
   4           -0.611599      -0.209722       0.369754
   5           -0.426811      -0.236756       0.095683
   6            0.071467       0.261526      -0.198669
   7            0.489720       0.008670      -0.370129
   8           -0.271128       0.031738       0.221402
   9           -0.011881       0.017830       0.191134
  10           -0.053085      -0.099822      -0.225708
  11            0.041001       0.074715       0.254390
  12           -0.000645      -0.175065      -0.062188
  13            0.128488       0.137086      -0.529238
  14            0.044008      -0.261699       0.786029
  15           -0.110180       0.067674      -0.021216
  16            0.516216      -0.747164       0.461983
  17           -0.081200      -0.615237      -0.720858
  18           -0.642096       0.188224       0.395726
  19            0.454243      -0.567205       0.030961
  20            0.073254      -0.183010      -0.545656
  21            0.624968       0.740445      -0.146886



                              Total Molecular Energy
                              ----------------------

             electronic     vibrational           total    energy 

            -154.964265        0.400099     -154.564165    Hartrees
           -34010724.53        87811.61    -33922912.92    cm-1
             -406858.61         1050.46      -405808.15    kJ/mol
              -97241.54          251.07       -96990.48    kcal/mol


                          Molecular Partition Functions
                          -----------------------------

 Qtran is evaluated per mol at 1 atm. pressure.
 Qrot does not include symmetry numbers.
 Qvib does not include zero point energies
 (i.e., energy scale has vibrational ground state as zero).


 Temp.(K)  Translational     Rotational    Vibrational      Total

    50.00     1.4142D+05        1186.98         1.0000   1.678649D+08
   100.00     8.0001D+05        3353.00         1.0000   2.682423D+09
   200.00     4.5255D+06        9477.69         1.0000   4.289144D+10
   273.15     9.8650D+06       15124.64         1.0000   1.492045D+11
   298.15     1.2279D+07       17247.20         1.0000   2.117876D+11
   300.00     1.2471D+07       17407.93         1.0000   2.170927D+11
   400.00     2.5600D+07       26798.41         1.0001   6.861137D+11
   500.00     4.4722D+07       37449.53         1.0007   1.675983D+12
   600.00     7.0546D+07       49226.60         1.0026   3.481863D+12
   700.00     1.0371D+08       62030.72         1.0069   6.477932D+12
   800.00     1.4482D+08       75785.28         1.0146   1.113476D+13
   900.00     1.9440D+08       90428.63         1.0265   1.804471D+13
  1000.00     2.5298D+08      105909.78         1.0434   2.795566D+13
  1500.00     6.9714D+08      194560.41         1.2238   1.659851D+14
  2000.00     1.4311D+09      299538.99         1.6244   6.963464D+14


                                +------------------+
                                ! Polarizabilities !
                                +------------------+


 Vibrational polarizabilities calculated acc. to Rinaldi et al.,
 Chem.Phys.Lett. 128 (1986) 177-181.


                        Vibrational Polarizabilities (au)
                        ---------------------------------

                         Ex          Ey          Ez

            Ex       0.144028    0.036796   -0.032029
            Ey       0.036796    0.188641   -0.008733
            Ez      -0.032029   -0.008733    0.116908



                   Vibrational Polarizabilities (angstroms**3)
                   -------------------------------------------

                         Ex          Ey          Ez

            Ex       0.021343    0.005453   -0.004746
            Ey       0.005453    0.027954   -0.001294
            Ez      -0.004746   -0.001294    0.017324



                   Vibrational Polarizabilities (angstroms**3)
                   -------------------------------------------

               (Along principal axes of moments of inertia)

                         EA          EB          EC

            EA       0.029439    0.004994    0.001325
            EB       0.004994    0.017953    0.004050
            EC       0.001325    0.004050    0.019228



 Vibrational mean polarization :    0.0561 cm**3 mol**-1


 CPU time statistics for ABACUS
 ------------------------------

 ONEINT     00:00:09       2 %
 TWOTEX     00:00:44      11 %
 RHSIDE     00:02:33      40 %
 RESPON     00:02:38      41 %
 RELAX      00:00:20       5 %

 TOTAL      00:06:24     100 %


  Total CPU  time used in ABACUS:  6 minutes 24 seconds
  Total wall time used in ABACUS:  6 minutes 25 seconds


                   .-------------------------------------------.
                   | End of Static Property Section (ABACUS) - |
                   `-------------------------------------------'

  Total CPU  time used in DALTON:  7 minutes 14 seconds
  Total wall time used in DALTON:  7 minutes 15 seconds

 
     Date and time (Linux)  : Fri Dec 17 09:23:00 2021
     Host name              : node339.cluster                         
