Running on  hostname
Wed Dec 15 08:35:19 CET 2021

                                 *****************
                                 * O   R   C   A *
                                 *****************

                                            #,                                       
                                            ###                                      
                                            ####                                     
                                            #####                                    
                                            ######                                   
                                           ########,                                 
                                     ,,################,,,,,                         
                               ,,#################################,,                 
                          ,,##########################################,,             
                       ,#########################################, ''#####,          
                    ,#############################################,,   '####,        
                  ,##################################################,,,,####,       
                ,###########''''           ''''###############################       
              ,#####''   ,,,,##########,,,,          '''####'''          '####       
            ,##' ,,,,###########################,,,                        '##       
           ' ,,###''''                  '''############,,,                           
         ,,##''                                '''############,,,,        ,,,,,,###''
      ,#''                                            '''#######################'''  
     '                                                          ''''####''''         
             ,#######,   #######,   ,#######,      ##                                
            ,#'     '#,  ##    ##  ,#'     '#,    #''#        ######   ,####,        
            ##       ##  ##   ,#'  ##            #'  '#       #        #'  '#        
            ##       ##  #######   ##           ,######,      #####,   #    #        
            '#,     ,#'  ##    ##  '#,     ,#' ,#      #,         ##   #,  ,#        
             '#######'   ##     ##  '#######'  #'      '#     #####' # '####'        



                  #######################################################
                  #                        -***-                        #
                  #          Department of theory and spectroscopy      #
                  #    Directorship and core code : Frank Neese         #
                  #        Max Planck Institute fuer Kohlenforschung    #
                  #                Kaiser Wilhelm Platz 1               #
                  #                 D-45470 Muelheim/Ruhr               #
                  #                      Germany                        #
                  #                                                     #
                  #                  All rights reserved                #
                  #                        -***-                        #
                  #######################################################


                         Program Version 5.0.1 -  RELEASE  -


 With contributions from (in alphabetic order):
   Daniel Aravena         : Magnetic Suceptibility
   Michael Atanasov       : Ab Initio Ligand Field Theory (pilot matlab implementation)
   Alexander A. Auer      : GIAO ZORA, VPT2 properties, NMR spectrum
   Ute Becker             : Parallelization
   Giovanni Bistoni       : ED, misc. LED, open-shell LED, HFLD
   Martin Brehm           : Molecular dynamics
   Dmytro Bykov           : SCF Hessian
   Vijay G. Chilkuri      : MRCI spin determinant printing, contributions to CSF-ICE
   Dipayan Datta          : RHF DLPNO-CCSD density
   Achintya Kumar Dutta   : EOM-CC, STEOM-CC
   Dmitry Ganyushin       : Spin-Orbit,Spin-Spin,Magnetic field MRCI
   Miquel Garcia          : C-PCM and meta-GGA Hessian, CC/C-PCM, Gaussian charge scheme
   Yang Guo               : DLPNO-NEVPT2, F12-NEVPT2, CIM, IAO-localization
   Andreas Hansen         : Spin unrestricted coupled pair/coupled cluster methods
   Benjamin Helmich-Paris : MC-RPA, TRAH-SCF, COSX integrals
   Lee Huntington         : MR-EOM, pCC
   Robert Izsak           : Overlap fitted RIJCOSX, COSX-SCS-MP3, EOM
   Marcus Kettner         : VPT2
   Christian Kollmar      : KDIIS, OOCD, Brueckner-CCSD(T), CCSD density, CASPT2, CASPT2-K
   Simone Kossmann        : Meta GGA functionals, TD-DFT gradient, OOMP2, MP2 Hessian
   Martin Krupicka        : Initial AUTO-CI
   Lucas Lang             : DCDCAS
   Marvin Lechner         : AUTO-CI (C++ implementation), FIC-MRCC
   Dagmar Lenk            : GEPOL surface, SMD
   Dimitrios Liakos       : Extrapolation schemes; Compound Job, initial MDCI parallelization
   Dimitrios Manganas     : Further ROCIS development; embedding schemes
   Dimitrios Pantazis     : SARC Basis sets
   Anastasios Papadopoulos: AUTO-CI, single reference methods and gradients
   Taras Petrenko         : DFT Hessian,TD-DFT gradient, ASA, ECA, R-Raman, ABS, FL, XAS/XES, NRVS
   Peter Pinski           : DLPNO-MP2, DLPNO-MP2 Gradient
   Christoph Reimann      : Effective Core Potentials
   Marius Retegan         : Local ZFS, SOC
   Christoph Riplinger    : Optimizer, TS searches, QM/MM, DLPNO-CCSD(T), (RO)-DLPNO pert. Triples
   Tobias Risthaus        : Range-separated hybrids, TD-DFT gradient, RPA, STAB
   Michael Roemelt        : Original ROCIS implementation
   Masaaki Saitow         : Open-shell DLPNO-CCSD energy and density
   Barbara Sandhoefer     : DKH picture change effects
   Avijit Sen             : IP-ROCIS
   Kantharuban Sivalingam : CASSCF convergence, NEVPT2, FIC-MRCI
   Bernardo de Souza      : ESD, SOC TD-DFT
   Georgi Stoychev        : AutoAux, RI-MP2 NMR, DLPNO-MP2 response
   Willem Van den Heuvel  : Paramagnetic NMR
   Boris Wezisla          : Elementary symmetry handling
   Frank Wennmohs         : Technical directorship


 We gratefully acknowledge several colleagues who have allowed us to
 interface, adapt or use parts of their codes:
   Stefan Grimme, W. Hujo, H. Kruse, P. Pracht,  : VdW corrections, initial TS optimization,
                  C. Bannwarth, S. Ehlert          DFT functionals, gCP, sTDA/sTD-DF
   Ed Valeev, F. Pavosevic, A. Kumar             : LibInt (2-el integral package), F12 methods
   Garnet Chan, S. Sharma, J. Yang, R. Olivares  : DMRG
   Ulf Ekstrom                                   : XCFun DFT Library
   Mihaly Kallay                                 : mrcc  (arbitrary order and MRCC methods)
   Jiri Pittner, Ondrej Demel                    : Mk-CCSD
   Frank Weinhold                                : gennbo (NPA and NBO analysis)
   Christopher J. Cramer and Donald G. Truhlar   : smd solvation model
   Lars Goerigk                                  : TD-DFT with DH, B97 family of functionals
   V. Asgeirsson, H. Jonsson                     : NEB implementation
   FAccTs GmbH                                   : IRC, NEB, NEB-TS, DLPNO-Multilevel, CI-OPT
                                                   MM, QMMM, 2- and 3-layer-ONIOM, Crystal-QMMM,
                                                   LR-CPCM, SF, NACMEs, symmetry and pop. for TD-DFT,
                                                   nearIR, NL-DFT gradient (VV10), updates on ESD,
                                                   ML-optimized integration grids
   S Lehtola, MJT Oliveira, MAL Marques          : LibXC Library
   Liviu Ungur et al                             : ANISO software


 Your calculation uses the libint2 library for the computation of 2-el integrals
 For citations please refer to: http://libint.valeyev.net

 Your ORCA version has been built with support for libXC version: 5.1.0
 For citations please refer to: https://tddft.org/programs/libxc/

 This ORCA versions uses:
   CBLAS   interface :  Fast vector & matrix operations
   LAPACKE interface :  Fast linear algebra routines
   SCALAPACK package :  Parallel linear algebra routines
   Shared memory     :  Shared parallel matrices
   BLAS/LAPACK       :  OpenBLAS 0.3.15  USE64BITINT DYNAMIC_ARCH NO_AFFINITY Haswell SINGLE_THREADED
        Core in use  :  Haswell
   Copyright (c) 2011-2014, The OpenBLAS Project


================================================================================

----- Orbital basis set information -----
Your calculation utilizes the basis: cc-pVDZ 
       H, B-Ne : Obtained from the ccRepo (grant-hill.group.shef.ac.uk/ccrepo) Feb. 2017
                 T. H. Dunning, Jr., J. Chem. Phys. 90, 1007 (1989)
            He : Obtained from the ccRepo (grant-hill.group.shef.ac.uk/ccrepo) Feb. 2017
                 D. E. Woon, T. H. Dunning, Jr., J. Chem. Phys. 100, 2975 (1994)
  Li-Be, Na-Mg : Obtained from the ccRepo (grant-hill.group.shef.ac.uk/ccrepo) Feb. 2017
                 B. P. Prascher, D. E. Woon, K. A. Peterson, T. H. Dunning, Jr., A. K. Wilson, Theor. Chem. Acc. 128, 69 (2011)
         Al-Ar : Obtained from the ccRepo (grant-hill.group.shef.ac.uk/ccrepo) Feb. 2017
                 D. E. Woon, T. H. Dunning, Jr., J. Chem. Phys. 98, 1358 (1993)
            Ca : Obtained from the Peterson Research Group Website (tyr0.chem.wsu.edu/~kipeters) Feb. 2017
                 J. Koput, K. A. Peterson, J. Phys. Chem. 106, 9595 (2002)
         Sc-Zn : Obtained from the ccRepo (grant-hill.group.shef.ac.uk/ccrepo) Feb. 2017
                 N. B. Balabanov, K. A. Peterson, J. Chem. Phys. 123, 064107 (2005)
                 N. B. Balabanov, K. A. Peterson, J. Chem. Phys. 125, 074110 (2006)
         Ga-Kr : Obtained from the ccRepo (grant-hill.group.shef.ac.uk/ccrepo) Feb. 2017
                 A. K. Wilson, D. E. Woon, K. A. Peterson, T. H. Dunning, Jr., J. Chem. Phys. 110, 7667 (1999)

----- AuxJ basis set information -----
Your calculation utilizes the auxiliary basis: def2/J
   F. Weigend, Phys. Chem. Chem. Phys. 8, 1057 (2006).

================================================================================
                                        WARNINGS
                       Please study these warnings very carefully!
================================================================================


WARNING: Geometry Optimization
  ===> : Switching off AutoStart
         For restart on a previous wavefunction, please use MOREAD

INFO   : the flag for use of the SHARK integral package has been found!

================================================================================
                                       INPUT FILE
================================================================================
NAME = Ethanol_orca_DFT.inp
|  1> ! PAL2
|  2> ! RKS cc-pVDZ B3LYP TightOpt
|  3> ! Opt Freq 
|  4> %method
|  5> end
|  6> %maxcore 4000
|  7> * xyz 0 1
|  8> C  1.011100  0.077080  -0.059530
|  9> C  2.525690  0.079850  -0.066400
| 10> O  3.005810  1.243650  -0.723650
| 11> H  0.625160  -0.805710  0.457800
| 12> H  0.619370  0.085560  -1.081990
| 13> H  0.626450  0.974410  0.436200
| 14> H  2.917510  -0.801850  -0.582510
| 15> H  2.913160  0.081420  0.956540
| 16> H  2.664530  1.228020  -1.634070
| 17> *
| 18> 
| 19> 
| 20>                          ****END OF INPUT****
================================================================================

                       *****************************
                       * Geometry Optimization Run *
                       *****************************

Geometry optimization settings:
Update method            Update   .... BFGS
Choice of coordinates    CoordSys .... Z-matrix Internals
Initial Hessian          InHess   .... Almoef's Model

Convergence Tolerances:
Energy Change            TolE     ....  1.0000e-06 Eh
Max. Gradient            TolMAXG  ....  1.0000e-04 Eh/bohr
RMS Gradient             TolRMSG  ....  3.0000e-05 Eh/bohr
Max. Displacement        TolMAXD  ....  1.0000e-03 bohr
RMS Displacement         TolRMSD  ....  6.0000e-04 bohr
Strict Convergence                ....  False
------------------------------------------------------------------------------
                        ORCA OPTIMIZATION COORDINATE SETUP
------------------------------------------------------------------------------

The optimization will be done in new redundant internal coordinates
Making redundant internal coordinates   ...  (new redundants) done
Evaluating the initial hessian          ...  (Almloef) done
Evaluating the coordinates              ...  done
Calculating the B-matrix                .... done
Calculating the G-matrix                .... done
Diagonalizing the G-matrix              .... done
The first mode is                       ....   12
The number of degrees of freedom        ....   21

    -----------------------------------------------------------------
                    Redundant Internal Coordinates


    -----------------------------------------------------------------
         Definition                    Initial Value    Approx d2E/dq
    -----------------------------------------------------------------
      1. B(C   1,C   0)                  1.5146         0.395307   
      2. B(O   2,C   1)                  1.4202         0.500862   
      3. B(H   3,C   0)                  1.0936         0.355406   
      4. B(H   4,C   0)                  1.0950         0.353591   
      5. B(H   5,C   0)                  1.0949         0.353617   
      6. B(H   6,C   1)                  1.0942         0.354578   
      7. B(H   7,C   1)                  1.0939         0.355023   
      8. B(H   8,O   2)                  0.9724         0.496784   
      9. A(C   1,C   0,H   5)          110.6003         0.326372   
     10. A(H   3,C   0,H   4)          108.7678         0.289412   
     11. A(H   3,C   0,H   5)          108.8690         0.289415   
     12. A(C   1,C   0,H   4)          110.7016         0.326368   
     13. A(C   1,C   0,H   3)          110.8875         0.326643   
     14. A(H   4,C   0,H   5)          106.9023         0.289183   
     15. A(H   6,C   1,H   7)          108.3854         0.289489   
     16. A(C   0,C   1,O   2)          109.9782         0.383509   
     17. A(O   2,C   1,H   7)          108.1712         0.337596   
     18. A(C   0,C   1,H   7)          110.4859         0.326585   
     19. A(O   2,C   1,H   6)          108.7220         0.337526   
     20. A(C   0,C   1,H   6)          111.0233         0.326518   
     21. A(C   1,O   2,H   8)          107.5458         0.354112   
     22. D(H   6,C   1,C   0,H   5)   -178.5775         0.012410   
     23. D(O   2,C   1,C   0,H   4)     60.0936         0.012410   
     24. D(H   6,C   1,C   0,H   3)     60.5425         0.012410   
     25. D(O   2,C   1,C   0,H   3)   -179.0862         0.012410   
     26. D(O   2,C   1,C   0,H   5)    -58.2062         0.012410   
     27. D(H   7,C   1,C   0,H   3)    -59.7424         0.012410   
     28. D(H   7,C   1,C   0,H   4)    179.4374         0.012410   
     29. D(H   7,C   1,C   0,H   5)     61.1376         0.012410   
     30. D(H   6,C   1,C   0,H   4)    -60.2777         0.012410   
     31. D(H   8,O   2,C   1,H   7)    179.3775         0.019835   
     32. D(H   8,O   2,C   1,H   6)     61.8776         0.019835   
     33. D(H   8,O   2,C   1,C   0)    -59.8749         0.019835   
    -----------------------------------------------------------------

Number of atoms                         .... 9
Number of degrees of freedom            .... 33

Time needed for optimization step       :    40.06 sec

         *************************************************************
         *                GEOMETRY OPTIMIZATION CYCLE   1            *
         *************************************************************
---------------------------------
CARTESIAN COORDINATES (ANGSTROEM)
---------------------------------
  C      1.011100    0.077080   -0.059530
  C      2.525690    0.079850   -0.066400
  O      3.005810    1.243650   -0.723650
  H      0.625160   -0.805710    0.457800
  H      0.619370    0.085560   -1.081990
  H      0.626450    0.974410    0.436200
  H      2.917510   -0.801850   -0.582510
  H      2.913160    0.081420    0.956540
  H      2.664530    1.228020   -1.634070

----------------------------
CARTESIAN COORDINATES (A.U.)
----------------------------
  NO LB      ZA    FRAG     MASS         X           Y           Z
   0 C     6.0000    0    12.011    1.910702    0.145660   -0.112495
   1 C     6.0000    0    12.011    4.772862    0.150895   -0.125478
   2 O     8.0000    0    15.999    5.680158    2.350158   -1.367500
   3 H     1.0000    0     1.008    1.181381   -1.522571    0.865117
   4 H     1.0000    0     1.008    1.170440    0.161685   -2.044665
   5 H     1.0000    0     1.008    1.183819    1.841368    0.824299
   6 H     1.0000    0     1.008    5.513295   -1.515277   -1.100784
   7 H     1.0000    0     1.008    5.505075    0.153862    1.807599
   8 H     1.0000    0     1.008    5.035232    2.320621   -3.087945

--------------------------------
INTERNAL COORDINATES (ANGSTROEM)
--------------------------------
 C      0   0   0     0.000000000000     0.00000000     0.00000000
 C      1   0   0     1.514608113639     0.00000000     0.00000000
 O      2   1   0     1.420184219353   109.97820191     0.00000000
 H      1   2   3     1.093571303848   110.88754780   180.91384980
 H      1   2   3     1.094965184332   110.70164780    60.09363525
 H      1   2   3     1.094945196939   110.60030942   301.79384854
 H      2   1   3     1.094206257750   111.02329775   239.62862416
 H      2   1   3     1.093865489628   110.48594168   119.34376283
 H      3   2   1     0.972409847595   107.54581126   300.12505932

---------------------------
INTERNAL COORDINATES (A.U.)
---------------------------
 C      0   0   0     0.000000000000     0.00000000     0.00000000
 C      1   0   0     2.862194534992     0.00000000     0.00000000
 O      2   1   0     2.683759234294   109.97820191     0.00000000
 H      1   2   3     2.066550272188   110.88754780   180.91384980
 H      1   2   3     2.069184324567   110.70164780    60.09363525
 H      1   2   3     2.069146553867   110.60030942   301.79384854
 H      2   1   3     2.067750161171   111.02329775   239.62862416
 H      2   1   3     2.067106202745   110.48594168   119.34376283
 H      3   2   1     1.837588301883   107.54581126   300.12505932

---------------------
BASIS SET INFORMATION
---------------------
There are 3 groups of distinct atoms

 Group   1 Type C   : 17s4p1d contracted to 3s2p1d pattern {881/31/1}
 Group   2 Type O   : 17s4p1d contracted to 3s2p1d pattern {881/31/1}
 Group   3 Type H   : 4s1p contracted to 2s1p pattern {31/1}

Atom   0C    basis set group =>   1
Atom   1C    basis set group =>   1
Atom   2O    basis set group =>   2
Atom   3H    basis set group =>   3
Atom   4H    basis set group =>   3
Atom   5H    basis set group =>   3
Atom   6H    basis set group =>   3
Atom   7H    basis set group =>   3
Atom   8H    basis set group =>   3
---------------------------------
AUXILIARY/J BASIS SET INFORMATION
---------------------------------
There are 3 groups of distinct atoms

 Group   1 Type C   : 12s5p4d2f1g contracted to 6s4p3d1f1g pattern {711111/2111/211/2/1}
 Group   2 Type O   : 12s5p4d2f1g contracted to 6s4p3d1f1g pattern {711111/2111/211/2/1}
 Group   3 Type H   : 5s2p1d contracted to 3s1p1d pattern {311/2/1}

Atom   0C    basis set group =>   1
Atom   1C    basis set group =>   1
Atom   2O    basis set group =>   2
Atom   3H    basis set group =>   3
Atom   4H    basis set group =>   3
Atom   5H    basis set group =>   3
Atom   6H    basis set group =>   3
Atom   7H    basis set group =>   3
Atom   8H    basis set group =>   3


           ************************************************************
           *        Program running with 2 parallel MPI-processes     *
           *              working on a common directory               *
           ************************************************************
------------------------------------------------------------------------------
                           ORCA GTO INTEGRAL CALCULATION
                           -- RI-GTO INTEGRALS CHOSEN --
------------------------------------------------------------------------------
------------------------------------------------------------------------------
                   ___                                                        
                  /   \      - P O W E R E D   B Y -                         
                 /     \                                                     
                 |  |  |   _    _      __       _____    __    __             
                 |  |  |  | |  | |    /  \     |  _  \  |  |  /  |          
                  \  \/   | |  | |   /    \    | | | |  |  | /  /          
                 / \  \   | |__| |  /  /\  \   | |_| |  |  |/  /          
                |  |  |   |  __  | /  /__\  \  |    /   |      \           
                |  |  |   | |  | | |   __   |  |    \   |  |\   \          
                \     /   | |  | | |  |  |  |  | |\  \  |  | \   \       
                 \___/    |_|  |_| |__|  |__|  |_| \__\ |__|  \__/        
                                                                              
                      - O R C A' S   B I G   F R I E N D -                    
                                      &                                       
                       - I N T E G R A L  F E E D E R -                       
                                                                              
 v1 FN, 2020, v2 2021                                                         
------------------------------------------------------------------------------


Reading SHARK input file Ethanol_orca_DFT.SHARKINP.tmp ... ok
----------------------
SHARK INTEGRAL PACKAGE
----------------------

Number of atoms                             ...      9
Number of basis functions                   ...     72
Number of shells                            ...     36
Maximum angular momentum                    ...      2
Integral batch strategy                     ... SHARK/LIBINT Hybrid
RI-J (if used) integral strategy            ... SPLIT-RIJ (Revised 2003 algorithm where possible)
Printlevel                                  ...      1
Contraction scheme used                     ... SEGMENTED contraction
Coulomb Range Separation                    ... NOT USED
Exchange Range Separation                   ... NOT USED
Finite Nucleus Model                        ... NOT USED
Auxiliary Coulomb fitting basis             ... AVAILABLE
   # of basis functions in Aux-J            ...    213
   # of shells in Aux-J                     ...     75
   Maximum angular momentum in Aux-J        ...      4
Auxiliary J/K fitting basis                 ... NOT available
Auxiliary Correlation fitting basis         ... NOT available
Auxiliary 'external' fitting basis          ... NOT available
Integral threshold                          ...     2.500000e-11
Primitive cut-off                           ...     2.500000e-12
Primitive pair pre-selection threshold      ...     2.500000e-12

Calculating pre-screening integrals         ... done (  0.0 sec) Dimension = 36
Organizing shell pair data                  ... done (  0.0 sec)
Shell pair information
Total number of shell pairs                 ...       666
Shell pairs after pre-screening             ...       666
Total number of primitive shell pairs       ...      4851
Primitive shell pairs kept                  ...      3805
          la=0 lb=0:    231 shell pairs
          la=1 lb=0:    252 shell pairs
          la=1 lb=1:     78 shell pairs
          la=2 lb=0:     63 shell pairs
          la=2 lb=1:     36 shell pairs
          la=2 lb=2:      6 shell pairs

Calculating one electron integrals          ... done (  0.0 sec)
Calculating RI/J V-Matrix + Cholesky decomp.... done (  0.0 sec)
Calculating Nuclear repulsion               ... done (  0.0 sec) ENN=     82.024064961850 Eh

SHARK setup successfully completed in   0.1 seconds

Maximum memory used throughout the entire GTOINT-calculation: 13.1 MB


           ************************************************************
           *        Program running with 2 parallel MPI-processes     *
           *              working on a common directory               *
           ************************************************************
-------------------------------------------------------------------------------
                                 ORCA SCF
-------------------------------------------------------------------------------

------------
SCF SETTINGS
------------
Hamiltonian:
 Density Functional     Method          .... DFT(GTOs)
 Exchange Functional    Exchange        .... B88
   X-Alpha parameter    XAlpha          ....  0.666667
   Becke's b parameter  XBeta           ....  0.004200
 Correlation Functional Correlation     .... LYP
 LDA part of GGA corr.  LDAOpt          .... VWN-5
 Gradients option       PostSCFGGA      .... off
 Hybrid DFT is turned on
   Fraction HF Exchange ScalHFX         ....  0.200000
   Scaling of DF-GGA-X  ScalDFX         ....  0.720000
   Scaling of DF-GGA-C  ScalDFC         ....  0.810000
   Scaling of DF-LDA-C  ScalLDAC        ....  1.000000
   Perturbative correction              ....  0.000000
   Density functional embedding theory  .... OFF
   NL short-range parameter             ....  4.800000
 RI-approximation to the Coulomb term is turned on
   Number of AuxJ basis functions       .... 213
   RIJ-COSX (HFX calculated with COS-X)).... on


General Settings:
 Integral files         IntName         .... Ethanol_orca_DFT
 Hartree-Fock type      HFTyp           .... RHF
 Total Charge           Charge          ....    0
 Multiplicity           Mult            ....    1
 Number of Electrons    NEL             ....   26
 Basis Dimension        Dim             ....   72
 Nuclear Repulsion      ENuc            ....     82.0240649618 Eh

Convergence Acceleration:
 DIIS                   CNVDIIS         .... on
   Start iteration      DIISMaxIt       ....    12
   Startup error        DIISStart       ....  0.200000
   # of expansion vecs  DIISMaxEq       ....     5
   Bias factor          DIISBfac        ....   1.050
   Max. coefficient     DIISMaxC        ....  10.000
 Trust-Rad. Augm. Hess. CNVTRAH         .... auto
   Auto Start mean grad. ratio tolernc. ....  1.125000
   Auto Start start iteration           ....    20
   Auto Start num. interpolation iter.  ....    10
   Max. Number of Micro iterations      ....    16
   Max. Number of Macro iterations      .... Maxiter - #DIIS iter
   Number of Davidson start vectors     ....     2
   Converg. threshold I  (grad. norm)   ....   1.000e-05
   Converg. threshold II (energy diff.) ....   1.000e-08
   Grad. Scal. Fac. for Micro threshold ....   0.100
   Minimum threshold for Micro iter.    ....   0.010
   NR start threshold (gradient norm)   ....   0.001
   Initial trust radius                 ....   0.400
   Minimum AH scaling param. (alpha)    ....   1.000
   Maximum AH scaling param. (alpha)    .... 1000.000
   Orbital update algorithm             .... Taylor
   White noise on init. David. guess    .... on
   Maximum white noise                  ....   0.010
   Quad. conv. algorithm                .... NR
 SOSCF                  CNVSOSCF        .... on
   Start iteration      SOSCFMaxIt      ....   150
   Startup grad/error   SOSCFStart      ....  0.003300
 Level Shifting         CNVShift        .... on
   Level shift para.    LevelShift      ....    0.2500
   Turn off err/grad.   ShiftErr        ....    0.0010
 Zerner damping         CNVZerner       .... off
 Static damping         CNVDamp         .... on
   Fraction old density DampFac         ....    0.7000
   Max. Damping (<1)    DampMax         ....    0.9800
   Min. Damping (>=0)   DampMin         ....    0.0000
   Turn off err/grad.   DampErr         ....    0.1000
 Fernandez-Rico         CNVRico         .... off

SCF Procedure:
 Maximum # iterations   MaxIter         ....   125
 SCF integral mode      SCFMode         .... Direct
   Integral package                     .... SHARK and LIBINT hybrid scheme
 Reset frequency        DirectResetFreq ....    20
 Integral Threshold     Thresh          ....  2.500e-11 Eh
 Primitive CutOff       TCut            ....  2.500e-12 Eh

Convergence Tolerance:
 Convergence Check Mode ConvCheckMode   .... Total+1el-Energy
 Convergence forced     ConvForced      .... 0
 Energy Change          TolE            ....  1.000e-08 Eh
 1-El. energy change                    ....  1.000e-05 Eh
 Orbital Gradient       TolG            ....  1.000e-05
 Orbital Rotation angle TolX            ....  1.000e-05
 DIIS Error             TolErr          ....  5.000e-07


Diagonalization of the overlap matrix:
Smallest eigenvalue                        ... 6.374e-03
Time for diagonalization                   ...    0.008 sec
Threshold for overlap eigenvalues          ... 1.000e-08
Number of eigenvalues below threshold      ... 0
Time for construction of square roots      ...    0.001 sec
Total time needed                          ...    0.009 sec

Time for model grid setup =    0.043 sec

------------------------------
INITIAL GUESS: MODEL POTENTIAL
------------------------------
Loading Hartree-Fock densities                     ... done
Calculating cut-offs                               ... done
Initializing the effective Hamiltonian             ... done
Setting up the integral package (SHARK)            ... done
Starting the Coulomb interaction                   ... done (   0.0 sec)
Reading the grid                                   ... done
Mapping shells                                     ... done
Starting the XC term evaluation                    ... done (   0.0 sec)
  promolecular density results
     # of electrons  =     25.997167944
     EX              =    -20.253348996
     EC              =     -0.847110004
     EX+EC           =    -21.100459001
Transforming the Hamiltonian                       ... done (   0.0 sec)
Diagonalizing the Hamiltonian                      ... done (   0.0 sec)
Back transforming the eigenvectors                 ... done (   0.0 sec)
Now organizing SCF variables                       ... done
                      ------------------
                      INITIAL GUESS DONE (   0.1 sec)
                      ------------------
-------------------
DFT GRID GENERATION
-------------------

General Integration Accuracy     IntAcc      ... 4.388
Radial Grid Type                 RadialGrid  ... OptM3 with GC (2021)
Angular Grid (max. ang.)         AngularGrid ... 4 (Lebedev-302)
Angular grid pruning method      GridPruning ... 4 (adaptive)
Weight generation scheme         WeightScheme... Becke
Basis function cutoff            BFCut       ... 1.0000e-11
Integration weight cutoff        WCut        ... 1.0000e-14
Angular grids for H and He will be reduced by one unit
Partially contracted basis set               ... off
Rotationally invariant grid construction     ... off

Total number of grid points                  ...    37719
Total number of batches                      ...      596
Average number of points per batch           ...       63
Average number of grid points per atom       ...     4191
Time for grid setup =    0.216 sec

--------------------
COSX GRID GENERATION
--------------------

GRIDX 1
-------
General Integration Accuracy     IntAcc      ... 3.816
Radial Grid Type                 RadialGrid  ... OptM3 with GC (2021)
Angular Grid (max. ang.)         AngularGrid ... 1 (Lebedev-50)
Angular grid pruning method      GridPruning ... 4 (adaptive)
Weight generation scheme         WeightScheme... Becke
Basis function cutoff            BFCut       ... 1.0000e-11
Integration weight cutoff        WCut        ... 1.0000e-14
Angular grids for H and He will be reduced by one unit
Partially contracted basis set               ... on
Rotationally invariant grid construction     ... off

Total number of grid points                  ...     4885
Total number of batches                      ...       82
Average number of points per batch           ...       59
Average number of grid points per atom       ...      543
UseSFitting                                  ... on

GRIDX 2
-------
General Integration Accuracy     IntAcc      ... 4.020
Radial Grid Type                 RadialGrid  ... OptM3 with GC (2021)
Angular Grid (max. ang.)         AngularGrid ... 2 (Lebedev-110)
Angular grid pruning method      GridPruning ... 4 (adaptive)
Weight generation scheme         WeightScheme... Becke
Basis function cutoff            BFCut       ... 1.0000e-11
Integration weight cutoff        WCut        ... 1.0000e-14
Angular grids for H and He will be reduced by one unit
Partially contracted basis set               ... on
Rotationally invariant grid construction     ... off

Total number of grid points                  ...    10230
Total number of batches                      ...      165
Average number of points per batch           ...       62
Average number of grid points per atom       ...     1137
UseSFitting                                  ... on

GRIDX 3
-------
General Integration Accuracy     IntAcc      ... 4.338
Radial Grid Type                 RadialGrid  ... OptM3 with GC (2021)
Angular Grid (max. ang.)         AngularGrid ... 3 (Lebedev-194)
Angular grid pruning method      GridPruning ... 4 (adaptive)
Weight generation scheme         WeightScheme... Becke
Basis function cutoff            BFCut       ... 1.0000e-11
Integration weight cutoff        WCut        ... 1.0000e-14
Angular grids for H and He will be reduced by one unit
Partially contracted basis set               ... on
Rotationally invariant grid construction     ... off

Total number of grid points                  ...    22425
Total number of batches                      ...      353
Average number of points per batch           ...       63
Average number of grid points per atom       ...     2492
UseSFitting                                  ... on

Time for X-Grid setup             =    0.201 sec

 re-compute Schwartz prescreening matrix in partically contracted basis (1) ...done (   0.085 sec)
--------------
SCF ITERATIONS
--------------
ITER       Energy         Delta-E        Max-DP      RMS-DP      [F,P]     Damp
               ***  Starting incremental Fock matrix formation  ***
  0   -154.8122791108   0.000000000000 0.07295575  0.00346638  0.2484464 0.7000
  1   -154.8756090998  -0.063329988943 0.04191429  0.00239498  0.1127677 0.7000
                               ***Turning on DIIS***
  2   -154.9003132177  -0.024704117921 0.06400275  0.00383788  0.0384024 0.0000
  3   -154.9374134026  -0.037100184860 0.02790719  0.00158883  0.0591865 0.0000
  4   -154.9466777910  -0.009264388480 0.00693689  0.00044189  0.0121765 0.0000
  5   -154.9470906233  -0.000412832235 0.00311746  0.00018263  0.0060215 0.0000
                      *** Initiating the SOSCF procedure ***
                           *** Shutting down DIIS ***
                      *** Re-Reading the Fockian *** 
                      *** Removing any level shift *** 
ITER      Energy       Delta-E        Grad      Rot      Max-DP    RMS-DP
  6   -154.94714356  -0.0000529417  0.000220  0.000220  0.001649  0.000093
               *** Restarting incremental Fock matrix formation ***
  7   -154.94713227   0.0000112956  0.000044  0.000076  0.000199  0.000012
  8   -154.94713228  -0.0000000144  0.000058  0.000033  0.000088  0.000006
  9   -154.94713235  -0.0000000687  0.000008  0.000005  0.000020  0.000001
                 **** Energy Check signals convergence ****
              ***Rediagonalizing the Fockian in SOSCF/NRSCF***

               *****************************************************
               *                     SUCCESS                       *
               *           SCF CONVERGED AFTER  10 CYCLES          *
               *****************************************************

Old exchange energy                            =     -4.151136796 Eh
New exchange energy                            =     -4.151136749 Eh
Exchange energy change after final integration =      0.000000048 Eh
Total energy after final integration           =   -154.947132304 Eh
Final COS-X integration done in                =     0.700 sec

----------------
TOTAL SCF ENERGY
----------------

Total Energy       :         -154.94713230 Eh           -4216.32582 eV

Components:
Nuclear Repulsion  :           82.02406496 Eh            2231.98828 eV
Electronic Energy  :         -236.97119727 Eh           -6448.31410 eV
One Electron Energy:         -372.27895166 Eh          -10130.22529 eV
Two Electron Energy:          135.30775440 Eh            3681.91118 eV
Max COSX asymmetry :            0.00000271 Eh               0.00007 eV

Virial components:
Potential Energy   :         -308.97526025 Eh           -8407.64427 eV
Kinetic Energy     :          154.02812795 Eh            4191.31844 eV
Virial Ratio       :            2.00596647


DFT components:
N(Alpha)           :       12.999993858825 electrons
N(Beta)            :       12.999993858825 electrons
N(Total)           :       25.999987717650 electrons
E(X)               :      -16.467152453505 Eh       
E(C)               :       -1.007809351590 Eh       
E(XC)              :      -17.474961805095 Eh       
DFET-embed. en.    :        0.000000000000 Eh       

---------------
SCF CONVERGENCE
---------------

  Last Energy change         ...    4.1067e-10  Tolerance :   1.0000e-08
  Last MAX-Density change    ...    4.8850e-15  Tolerance :   1.0000e-07
  Last RMS-Density change    ...    7.9928e-17  Tolerance :   5.0000e-09
  Last Orbital Gradient      ...    6.8572e-06  Tolerance :   1.0000e-05
  Last Orbital Rotation      ...    2.6509e-06  Tolerance :   1.0000e-05

             **** THE GBW FILE WAS UPDATED (Ethanol_orca_DFT.gbw) ****
             **** DENSITY Ethanol_orca_DFT.scfp WAS UPDATED ****
             **** ENERGY FILE WAS UPDATED (Ethanol_orca_DFT.en.tmp) ****
             **** THE GBW FILE WAS UPDATED (Ethanol_orca_DFT.gbw) ****
             **** DENSITY Ethanol_orca_DFT.scfp WAS UPDATED ****
----------------
ORBITAL ENERGIES
----------------

  NO   OCC          E(Eh)            E(eV) 
   0   2.0000     -19.122480      -520.3491 
   1   2.0000     -10.222730      -278.1746 
   2   2.0000     -10.174651      -276.8663 
   3   2.0000      -1.006686       -27.3933 
   4   2.0000      -0.741986       -20.1905 
   5   2.0000      -0.617212       -16.7952 
   6   2.0000      -0.492840       -13.4109 
   7   2.0000      -0.448238       -12.1972 
   8   2.0000      -0.424498       -11.5512 
   9   2.0000      -0.377348       -10.2682 
  10   2.0000      -0.364115        -9.9081 
  11   2.0000      -0.314891        -8.5686 
  12   2.0000      -0.258427        -7.0322 
  13   0.0000       0.054824         1.4918 
  14   0.0000       0.092304         2.5117 
  15   0.0000       0.111387         3.0310 
  16   0.0000       0.126601         3.4450 
  17   0.0000       0.138988         3.7821 
  18   0.0000       0.160685         4.3725 
  19   0.0000       0.211896         5.7660 
  20   0.0000       0.238949         6.5021 
  21   0.0000       0.417552        11.3622 
  22   0.0000       0.438617        11.9354 
  23   0.0000       0.472976        12.8703 
  24   0.0000       0.503471        13.7001 
  25   0.0000       0.544866        14.8266 
  26   0.0000       0.577321        15.7097 
  27   0.0000       0.616774        16.7833 
  28   0.0000       0.653812        17.7911 
  29   0.0000       0.658732        17.9250 
  30   0.0000       0.663563        18.0565 
  31   0.0000       0.667486        18.1632 
  32   0.0000       0.697797        18.9880 
  33   0.0000       0.884768        24.0757 
  34   0.0000       0.903685        24.5905 
  35   0.0000       0.956049        26.0154 
  36   0.0000       1.019254        27.7353 
  37   0.0000       1.066437        29.0192 
  38   0.0000       1.134718        30.8772 
  39   0.0000       1.214593        33.0508 
  40   0.0000       1.256141        34.1813 
  41   0.0000       1.328917        36.1617 
  42   0.0000       1.397275        38.0218 
  43   0.0000       1.427321        38.8394 
  44   0.0000       1.490669        40.5632 
  45   0.0000       1.577905        42.9370 
  46   0.0000       1.601077        43.5675 
  47   0.0000       1.624875        44.2151 
  48   0.0000       1.656034        45.0630 
  49   0.0000       1.662568        45.2408 
  50   0.0000       1.675653        45.5968 
  51   0.0000       1.702103        46.3166 
  52   0.0000       1.769804        48.1588 
  53   0.0000       1.810098        49.2553 
  54   0.0000       1.877694        51.0946 
  55   0.0000       1.971525        53.6479 
  56   0.0000       1.990305        54.1590 
  57   0.0000       2.050108        55.7863 
  58   0.0000       2.104956        57.2788 
  59   0.0000       2.205167        60.0056 
  60   0.0000       2.212766        60.2124 
  61   0.0000       2.239617        60.9431 
  62   0.0000       2.420159        65.8559 
  63   0.0000       2.434731        66.2524 
  64   0.0000       2.498822        67.9964 
  65   0.0000       2.537631        69.0524 
  66   0.0000       2.572346        69.9971 
  67   0.0000       2.948809        80.2412 
  68   0.0000       3.026426        82.3532 
  69   0.0000       3.080236        83.8175 
  70   0.0000       3.238917        88.1354 
  71   0.0000       3.687172       100.3330 

                    ********************************
                    * MULLIKEN POPULATION ANALYSIS *
                    ********************************

-----------------------
MULLIKEN ATOMIC CHARGES
-----------------------
   0 C :   -0.038384
   1 C :    0.125220
   2 O :   -0.279313
   3 H :    0.008715
   4 H :    0.006221
   5 H :    0.025566
   6 H :   -0.002843
   7 H :    0.020493
   8 H :    0.134325
Sum of atomic charges:   -0.0000000

--------------------------------
MULLIKEN REDUCED ORBITAL CHARGES
--------------------------------
  0 C s       :     3.035179  s :     3.035179
      pz      :     0.985616  p :     2.956915
      px      :     0.979032
      py      :     0.992267
      dz2     :     0.008084  d :     0.046290
      dxz     :     0.011388
      dyz     :     0.006088
      dx2y2   :     0.011377
      dxy     :     0.009352
  1 C s       :     3.029999  s :     3.029999
      pz      :     0.959865  p :     2.730257
      px      :     0.961366
      py      :     0.809027
      dz2     :     0.020054  d :     0.114524
      dxz     :     0.018595
      dyz     :     0.021073
      dx2y2   :     0.029212
      dxy     :     0.025590
  2 O s       :     3.719302  s :     3.719302
      pz      :     1.234854  p :     4.546832
      px      :     1.774706
      py      :     1.537272
      dz2     :     0.003554  d :     0.013179
      dxz     :     0.002489
      dyz     :     0.001897
      dx2y2   :     0.002559
      dxy     :     0.002679
  3 H s       :     0.962240  s :     0.962240
      pz      :     0.008794  p :     0.029044
      px      :     0.006841
      py      :     0.013409
  4 H s       :     0.964812  s :     0.964812
      pz      :     0.015457  p :     0.028967
      px      :     0.006937
      py      :     0.006573
  5 H s       :     0.945818  s :     0.945818
      pz      :     0.008509  p :     0.028616
      px      :     0.006327
      py      :     0.013780
  6 H s       :     0.976524  s :     0.976524
      pz      :     0.007634  p :     0.026319
      px      :     0.006796
      py      :     0.011888
  7 H s       :     0.953108  s :     0.953108
      pz      :     0.015855  p :     0.026399
      px      :     0.006691
      py      :     0.003852
  8 H s       :     0.786671  s :     0.786671
      pz      :     0.038137  p :     0.079003
      px      :     0.023721
      py      :     0.017146


                     *******************************
                     * LOEWDIN POPULATION ANALYSIS *
                     *******************************

----------------------
LOEWDIN ATOMIC CHARGES
----------------------
   0 C :   -0.081610
   1 C :   -0.026852
   2 O :   -0.038812
   3 H :    0.026823
   4 H :    0.020076
   5 H :    0.027862
   6 H :    0.006668
   7 H :    0.023964
   8 H :    0.041880

-------------------------------
LOEWDIN REDUCED ORBITAL CHARGES
-------------------------------
  0 C s       :     2.807570  s :     2.807570
      pz      :     1.051174  p :     3.127304
      px      :     1.021509
      py      :     1.054621
      dz2     :     0.028488  d :     0.146736
      dxz     :     0.031062
      dyz     :     0.023371
      dx2y2   :     0.036412
      dxy     :     0.027402
  1 C s       :     2.808113  s :     2.808113
      pz      :     1.013200  p :     2.926967
      px      :     1.012515
      py      :     0.901253
      dz2     :     0.054786  d :     0.291772
      dxz     :     0.043776
      dyz     :     0.049675
      dx2y2   :     0.083654
      dxy     :     0.059880
  2 O s       :     3.405626  s :     3.405626
      pz      :     1.319281  p :     4.608271
      px      :     1.740156
      py      :     1.548833
      dz2     :     0.008575  d :     0.024915
      dxz     :     0.005196
      dyz     :     0.003637
      dx2y2   :     0.003729
      dxy     :     0.003777
  3 H s       :     0.894203  s :     0.894203
      pz      :     0.022584  p :     0.078974
      px      :     0.020992
      py      :     0.035397
  4 H s       :     0.901795  s :     0.901795
      pz      :     0.041274  p :     0.078129
      px      :     0.020770
      py      :     0.016085
  5 H s       :     0.893653  s :     0.893653
      pz      :     0.021781  p :     0.078485
      px      :     0.020017
      py      :     0.036687
  6 H s       :     0.916384  s :     0.916384
      pz      :     0.021402  p :     0.076948
      px      :     0.019698
      py      :     0.035847
  7 H s       :     0.901276  s :     0.901276
      pz      :     0.043507  p :     0.074760
      px      :     0.019521
      py      :     0.011732
  8 H s       :     0.758336  s :     0.758336
      pz      :     0.092745  p :     0.199784
      px      :     0.062344
      py      :     0.044695


                      *****************************
                      * MAYER POPULATION ANALYSIS *
                      *****************************

  NA   - Mulliken gross atomic population
  ZA   - Total nuclear charge
  QA   - Mulliken gross atomic charge
  VA   - Mayer's total valence
  BVA  - Mayer's bonded valence
  FA   - Mayer's free valence

  ATOM       NA         ZA         QA         VA         BVA        FA
  0 C      6.0384     6.0000    -0.0384     4.0245     4.0245     0.0000
  1 C      5.8748     6.0000     0.1252     4.1321     4.1321     0.0000
  2 O      8.2793     8.0000    -0.2793     2.1416     2.1416     0.0000
  3 H      0.9913     1.0000     0.0087     0.9811     0.9811    -0.0000
  4 H      0.9938     1.0000     0.0062     0.9826     0.9826    -0.0000
  5 H      0.9744     1.0000     0.0256     0.9850     0.9850    -0.0000
  6 H      1.0028     1.0000    -0.0028     0.9587     0.9587    -0.0000
  7 H      0.9795     1.0000     0.0205     0.9679     0.9679    -0.0000
  8 H      0.8657     1.0000     0.1343     1.0453     1.0453    -0.0000

  Mayer bond orders larger than 0.100000
B(  0-C ,  1-C ) :   1.1047 B(  0-C ,  3-H ) :   0.9566 B(  0-C ,  4-H ) :   0.9680 
B(  0-C ,  5-H ) :   0.9678 B(  1-C ,  2-O ) :   1.0719 B(  1-C ,  6-H ) :   0.9514 
B(  1-C ,  7-H ) :   0.9551 B(  2-O ,  8-H ) :   1.0074 

-------
TIMINGS
-------

Total SCF time: 0 days 0 hours 0 min 7 sec 

Total time                  ....       7.129 sec
Sum of individual times     ....       6.932 sec  ( 97.2%)

Fock matrix formation       ....       5.413 sec  ( 75.9%)
  Split-RI-J                ....       0.576 sec  ( 10.6% of F)
  Chain of spheres X        ....       3.336 sec  ( 61.6% of F)
  XC integration            ....       1.499 sec  ( 27.7% of F)
    Basis function eval.    ....       0.648 sec  ( 43.3% of XC)
    Density eval.           ....       0.266 sec  ( 17.8% of XC)
    XC-Functional eval.     ....       0.220 sec  ( 14.6% of XC)
    XC-Potential eval.      ....       0.253 sec  ( 16.9% of XC)
Diagonalization             ....       0.012 sec  (  0.2%)
Density matrix formation    ....       0.001 sec  (  0.0%)
Population analysis         ....       0.980 sec  ( 13.7%)
Initial guess               ....       0.052 sec  (  0.7%)
Orbital Transformation      ....       0.000 sec  (  0.0%)
Orbital Orthonormalization  ....       0.000 sec  (  0.0%)
DIIS solution               ....       0.010 sec  (  0.1%)
SOSCF solution              ....       0.005 sec  (  0.1%)
Grid generation             ....       0.459 sec  (  6.4%)

Maximum memory used throughout the entire SCF-calculation: 46.7 MB

-------------------------   --------------------
FINAL SINGLE POINT ENERGY      -154.947132304407
-------------------------   --------------------



           ************************************************************
           *        Program running with 2 parallel MPI-processes     *
           *              working on a common directory               *
           ************************************************************
------------------------------------------------------------------------------
                         ORCA SCF GRADIENT CALCULATION
------------------------------------------------------------------------------

 ... reading COSX grid (gridx3)
Gradient of the Kohn-Sham DFT energy:
Kohn-Sham wavefunction type      ... RKS
Hartree-Fock exchange scaling    ...    0.200
Number of operators              ...    1
Number of atoms                  ...    9
Basis set dimensions             ...   72
Integral neglect threshold       ... 2.5e-11
Integral primitive cutoff        ... 2.5e-12
SHARK Integral package           ... ON

Nuc. rep. gradient       (SHARK) ... done (  0.0 sec)
HCore & Overlap gradient (SHARK) ... done (  0.0 sec)
RI-J gradient            (SHARK) ... done (  0.2 sec)
COSX-gradient                    ... done (  1.0 sec)
Exchange-correlation gradient    ... done

------------------
CARTESIAN GRADIENT
------------------

   1   C   :   -0.000322310    0.002263161   -0.004117826
   2   C   :    0.006341455   -0.008396447    0.012335841
   3   O   :   -0.006582663   -0.007495824   -0.000586067
   4   H   :    0.004690031    0.005138025   -0.002131203
   5   H   :    0.002442782    0.002322640    0.005971435
   6   H   :    0.000887405   -0.003656507   -0.003340564
   7   H   :   -0.001854204    0.011394958   -0.000078450
   8   H   :   -0.004460814   -0.002633000   -0.003709654
   9   H   :   -0.001088488    0.001034383   -0.004342473

Difference to translation invariance:
           :    0.0000531949   -0.0000286122    0.0000010408

Difference to rotation invariance:
           :    0.0001798010   -0.0001019174   -0.0002562900

Norm of the cartesian gradient     ...    0.0265556139
RMS gradient                       ...    0.0051106303
MAX gradient                       ...    0.0123358412

-------
TIMINGS
-------

Total SCF gradient time            ...        2.237 sec

One electron gradient       ....       0.029 sec  (  1.3%)
RI-J Coulomb gradient       ....       0.179 sec  (  8.0%)
COSX gradient               ....       1.037 sec  ( 46.3%)
XC gradient                 ....       0.805 sec  ( 36.0%)

Maximum memory used throughout the entire SCFGRAD-calculation: 35.2 MB
------------------------------------------------------------------------------
                         ORCA GEOMETRY RELAXATION STEP
------------------------------------------------------------------------------

Reading the OPT-File                    .... done
Getting information on internals        .... done
Copying old internal coords+grads       .... done
Making the new internal coordinates     .... (new redundants).... done
Validating the new internal coordinates .... (new redundants).... done
Calculating the B-matrix                .... done
Calculating the G,G- and P matrices     .... done
Transforming gradient to internals      .... done
Projecting the internal gradient        .... done
Number of atoms                         ....   9
Number of internal coordinates          ....  33
Current Energy                          ....  -154.947132304 Eh
Current gradient norm                   ....     0.026555614 Eh/bohr
Maximum allowed component of the step   ....  0.300
Current trust radius                    ....  0.300
Evaluating the initial hessian          ....  (Almloef) done
Projecting the Hessian                  .... done
Forming the augmented Hessian           .... done
Diagonalizing the augmented Hessian     .... done
Last element of RFO vector              ....  0.994662587
Lowest eigenvalues of augmented Hessian:
 -0.002241513  0.012414313  0.019835428  0.105877459  0.107751167
Length of the computed step             ....  0.103734770
The final length of the internal step   ....  0.103734770
Converting the step to cartesian space:
 Initial RMS(Int)=    0.0180579057
Transforming coordinates:
 Iter   0:  RMS(Cart)=    0.0308566582 RMS(Int)=    1.0917525867
 Iter   1:  RMS(Cart)=    0.0003714297 RMS(Int)=    0.0002955949
 Iter   2:  RMS(Cart)=    0.0000096380 RMS(Int)=    0.0000058291
 Iter   3:  RMS(Cart)=    0.0000002302 RMS(Int)=    0.0000001769
 Iter   4:  RMS(Cart)=    0.0000000064 RMS(Int)=    0.0000000046
done
Storing new coordinates                 .... done

                                .--------------------.
          ----------------------|Geometry convergence|-------------------------
          Item                value                   Tolerance       Converged
          ---------------------------------------------------------------------
          RMS gradient        0.0044210011            0.0000300000      NO
          MAX gradient        0.0110269484            0.0001000000      NO
          RMS step            0.0180579057            0.0006000000      NO
          MAX step            0.0360964358            0.0010000000      NO
          ........................................................
          Max(Bonds)      0.0146      Max(Angles)    2.07
          Max(Dihed)        1.99      Max(Improp)    0.00
          ---------------------------------------------------------------------

The optimization has not yet converged - more geometry cycles are needed


    ---------------------------------------------------------------------------
                         Redundant Internal Coordinates
                            (Angstroem and degrees)

        Definition                    Value    dE/dq     Step     New-Value
    ----------------------------------------------------------------------------
     1. B(C   1,C   0)                1.5146 -0.007706  0.0103    1.5249   
     2. B(O   2,C   1)                1.4202 -0.005607  0.0059    1.4261   
     3. B(H   3,C   0)                1.0936 -0.006809  0.0101    1.1036   
     4. B(H   4,C   0)                1.0950 -0.006433  0.0096    1.1045   
     5. B(H   5,C   0)                1.0949 -0.004818  0.0072    1.1021   
     6. B(H   6,C   1)                1.0942 -0.009818  0.0146    1.1088   
     7. B(H   7,C   1)                1.0939 -0.005054  0.0075    1.1014   
     8. B(H   8,O   2)                0.9724  0.004446 -0.0047    0.9677   
     9. A(C   1,C   0,H   5)          110.60  0.001559   -0.20    110.40   
    10. A(H   3,C   0,H   4)          108.77  0.002249   -0.58    108.19   
    11. A(H   3,C   0,H   5)          108.87  0.000930   -0.17    108.70   
    12. A(C   1,C   0,H   4)          110.70  0.000163   -0.03    110.67   
    13. A(C   1,C   0,H   3)          110.89 -0.003366    0.53    111.42   
    14. A(H   4,C   0,H   5)          106.90 -0.001419    0.43    107.33   
    15. A(H   6,C   1,H   7)          108.39  0.000093   -0.88    107.51   
    16. A(C   0,C   1,O   2)          109.98 -0.011027    2.07    112.05   
    17. A(O   2,C   1,H   7)          108.17  0.008063   -1.88    106.29   
    18. A(C   0,C   1,H   7)          110.49 -0.000076   -0.39    110.09   
    19. A(O   2,C   1,H   6)          108.72 -0.001502    1.40    110.12   
    20. A(C   0,C   1,H   6)          111.02  0.004694   -0.36    110.66   
    21. A(C   1,O   2,H   8)          107.55  0.002205   -0.35    107.19   
    22. D(H   6,C   1,C   0,H   5)   -178.58  0.003213   -1.27   -179.85   
    23. D(O   2,C   1,C   0,H   4)     60.09 -0.003567    1.99     62.09   
    24. D(H   6,C   1,C   0,H   3)     60.54  0.003239   -1.28     59.26   
    25. D(O   2,C   1,C   0,H   3)   -179.09 -0.002868    1.59   -177.49   
    26. D(O   2,C   1,C   0,H   5)    -58.21 -0.002894    1.60    -56.60   
    27. D(H   7,C   1,C   0,H   3)    -59.74  0.000088    0.32    -59.42   
    28. D(H   7,C   1,C   0,H   4)    179.44 -0.000612    0.72    180.16   
    29. D(H   7,C   1,C   0,H   5)     61.14  0.000062    0.33     61.47   
    30. D(H   6,C   1,C   0,H   4)    -60.28  0.002539   -0.88    -61.16   
    31. D(H   8,O   2,C   1,H   7)    179.38  0.001888   -0.49    178.89   
    32. D(H   8,O   2,C   1,H   6)     61.88 -0.001859    0.83     62.71   
    33. D(H   8,O   2,C   1,C   0)    -59.87  0.000185   -0.90    -60.77   
    ----------------------------------------------------------------------------

Time needed for optimization step       :    98.50 sec

         *************************************************************
         *                GEOMETRY OPTIMIZATION CYCLE   2            *
         *************************************************************
---------------------------------
CARTESIAN COORDINATES (ANGSTROEM)
---------------------------------
  C      0.997863    0.070951   -0.056010
  C      2.522385    0.087058   -0.084093
  O      3.033398    1.256650   -0.720199
  H      0.613981   -0.815736    0.477331
  H      0.589018    0.059913   -1.082029
  H      0.613145    0.976294    0.440972
  H      2.913313   -0.821127   -0.585829
  H      2.919778    0.095191    0.943033
  H      2.705899    1.253236   -1.630785

----------------------------
CARTESIAN COORDINATES (A.U.)
----------------------------
  NO LB      ZA    FRAG     MASS         X           Y           Z
   0 C     6.0000    0    12.011    1.885688    0.134078   -0.105844
   1 C     6.0000    0    12.011    4.766616    0.164517   -0.158913
   2 O     8.0000    0    15.999    5.732292    2.374724   -1.360980
   3 H     1.0000    0     1.008    1.160256   -1.541518    0.902025
   4 H     1.0000    0     1.008    1.113082    0.113220   -2.044738
   5 H     1.0000    0     1.008    1.158676    1.844927    0.833316
   6 H     1.0000    0     1.008    5.505363   -1.551704   -1.107057
   7 H     1.0000    0     1.008    5.517581    0.179885    1.782073
   8 H     1.0000    0     1.008    5.113408    2.368273   -3.081737

--------------------------------
INTERNAL COORDINATES (ANGSTROEM)
--------------------------------
 C      0   0   0     0.000000000000     0.00000000     0.00000000
 C      1   0   0     1.524865433613     0.00000000     0.00000000
 O      2   1   0     1.426081980022   112.03241420     0.00000000
 H      1   2   3     1.103645247277   111.41614387   182.51193541
 H      1   2   3     1.104531288029   110.67505351    62.08989488
 H      1   2   3     1.102109239432   110.40309769   303.40029952
 H      2   1   3     1.108767042782   110.62076632   236.74906263
 H      2   1   3     1.101351118469   110.09910876   118.06464987
 H      3   2   1     0.967694917275   107.19130459   299.19338321

---------------------------
INTERNAL COORDINATES (A.U.)
---------------------------
 C      0   0   0     0.000000000000     0.00000000     0.00000000
 C      1   0   0     2.881578060612     0.00000000     0.00000000
 O      2   1   0     2.694904386762   112.03241420     0.00000000
 H      1   2   3     2.085587266357   111.41614387   182.51193541
 H      1   2   3     2.087261640723   110.67505351    62.08989488
 H      1   2   3     2.082684632190   110.40309769   303.40029952
 H      2   1   3     2.095266057175   110.62076632   236.74906263
 H      2   1   3     2.081251991194   110.09910876   118.06464987
 H      3   2   1     1.828678374837   107.19130459   299.19338321



           ************************************************************
           *        Program running with 2 parallel MPI-processes     *
           *              working on a common directory               *
           ************************************************************
------------------------------------------------------------------------------
                   ___                                                        
                  /   \      - P O W E R E D   B Y -                         
                 /     \                                                     
                 |  |  |   _    _      __       _____    __    __             
                 |  |  |  | |  | |    /  \     |  _  \  |  |  /  |          
                  \  \/   | |  | |   /    \    | | | |  |  | /  /          
                 / \  \   | |__| |  /  /\  \   | |_| |  |  |/  /          
                |  |  |   |  __  | /  /__\  \  |    /   |      \           
                |  |  |   | |  | | |   __   |  |    \   |  |\   \          
                \     /   | |  | | |  |  |  |  | |\  \  |  | \   \       
                 \___/    |_|  |_| |__|  |__|  |_| \__\ |__|  \__/        
                                                                              
                      - O R C A' S   B I G   F R I E N D -                    
                                      &                                       
                       - I N T E G R A L  F E E D E R -                       
                                                                              
 v1 FN, 2020, v2 2021                                                         
------------------------------------------------------------------------------


Reading SHARK input file Ethanol_orca_DFT.SHARKINP.tmp ... ok
----------------------
SHARK INTEGRAL PACKAGE
----------------------

Number of atoms                             ...      9
Number of basis functions                   ...     72
Number of shells                            ...     36
Maximum angular momentum                    ...      2
Integral batch strategy                     ... SHARK/LIBINT Hybrid
RI-J (if used) integral strategy            ... SPLIT-RIJ (Revised 2003 algorithm where possible)
Printlevel                                  ...      1
Contraction scheme used                     ... SEGMENTED contraction
Coulomb Range Separation                    ... NOT USED
Exchange Range Separation                   ... NOT USED
Finite Nucleus Model                        ... NOT USED
Auxiliary Coulomb fitting basis             ... AVAILABLE
   # of basis functions in Aux-J            ...    213
   # of shells in Aux-J                     ...     75
   Maximum angular momentum in Aux-J        ...      4
Auxiliary J/K fitting basis                 ... NOT available
Auxiliary Correlation fitting basis         ... NOT available
Auxiliary 'external' fitting basis          ... NOT available
Integral threshold                          ...     2.500000e-11
Primitive cut-off                           ...     2.500000e-12
Primitive pair pre-selection threshold      ...     2.500000e-12

Calculating pre-screening integrals         ... done (  0.0 sec) Dimension = 36
Organizing shell pair data                  ... done (  0.0 sec)
Shell pair information
Total number of shell pairs                 ...       666
Shell pairs after pre-screening             ...       666
Total number of primitive shell pairs       ...      4851
Primitive shell pairs kept                  ...      3796
          la=0 lb=0:    231 shell pairs
          la=1 lb=0:    252 shell pairs
          la=1 lb=1:     78 shell pairs
          la=2 lb=0:     63 shell pairs
          la=2 lb=1:     36 shell pairs
          la=2 lb=2:      6 shell pairs

Calculating one electron integrals          ... done (  0.0 sec)
Calculating RI/J V-Matrix + Cholesky decomp.... done (  0.0 sec)
Calculating Nuclear repulsion               ... done (  0.0 sec) ENN=     81.369254456405 Eh

SHARK setup successfully completed in   0.1 seconds

Maximum memory used throughout the entire GTOINT-calculation: 13.1 MB


           ************************************************************
           *        Program running with 2 parallel MPI-processes     *
           *              working on a common directory               *
           ************************************************************

Diagonalization of the overlap matrix:
Smallest eigenvalue                        ... 6.537e-03
Time for diagonalization                   ...    0.001 sec
Threshold for overlap eigenvalues          ... 1.000e-08
Number of eigenvalues below threshold      ... 0
Time for construction of square roots      ...    0.001 sec
Total time needed                          ...    0.003 sec

-------------------
DFT GRID GENERATION
-------------------

General Integration Accuracy     IntAcc      ... 4.388
Radial Grid Type                 RadialGrid  ... OptM3 with GC (2021)
Angular Grid (max. ang.)         AngularGrid ... 4 (Lebedev-302)
Angular grid pruning method      GridPruning ... 4 (adaptive)
Weight generation scheme         WeightScheme... Becke
Basis function cutoff            BFCut       ... 1.0000e-11
Integration weight cutoff        WCut        ... 1.0000e-14
Angular grids for H and He will be reduced by one unit
Partially contracted basis set               ... off
Rotationally invariant grid construction     ... off

Total number of grid points                  ...    37739
Total number of batches                      ...      593
Average number of points per batch           ...       63
Average number of grid points per atom       ...     4193
Time for grid setup =    0.217 sec

--------------------
COSX GRID GENERATION
--------------------

GRIDX 1
-------
General Integration Accuracy     IntAcc      ... 3.816
Radial Grid Type                 RadialGrid  ... OptM3 with GC (2021)
Angular Grid (max. ang.)         AngularGrid ... 1 (Lebedev-50)
Angular grid pruning method      GridPruning ... 4 (adaptive)
Weight generation scheme         WeightScheme... Becke
Basis function cutoff            BFCut       ... 1.0000e-11
Integration weight cutoff        WCut        ... 1.0000e-14
Angular grids for H and He will be reduced by one unit
Partially contracted basis set               ... on
Rotationally invariant grid construction     ... off

Total number of grid points                  ...     4884
Total number of batches                      ...       83
Average number of points per batch           ...       58
Average number of grid points per atom       ...      543
UseSFitting                                  ... on

GRIDX 2
-------
General Integration Accuracy     IntAcc      ... 4.020
Radial Grid Type                 RadialGrid  ... OptM3 with GC (2021)
Angular Grid (max. ang.)         AngularGrid ... 2 (Lebedev-110)
Angular grid pruning method      GridPruning ... 4 (adaptive)
Weight generation scheme         WeightScheme... Becke
Basis function cutoff            BFCut       ... 1.0000e-11
Integration weight cutoff        WCut        ... 1.0000e-14
Angular grids for H and He will be reduced by one unit
Partially contracted basis set               ... on
Rotationally invariant grid construction     ... off

Total number of grid points                  ...    10228
Total number of batches                      ...      165
Average number of points per batch           ...       61
Average number of grid points per atom       ...     1136
UseSFitting                                  ... on

GRIDX 3
-------
General Integration Accuracy     IntAcc      ... 4.338
Radial Grid Type                 RadialGrid  ... OptM3 with GC (2021)
Angular Grid (max. ang.)         AngularGrid ... 3 (Lebedev-194)
Angular grid pruning method      GridPruning ... 4 (adaptive)
Weight generation scheme         WeightScheme... Becke
Basis function cutoff            BFCut       ... 1.0000e-11
Integration weight cutoff        WCut        ... 1.0000e-14
Angular grids for H and He will be reduced by one unit
Partially contracted basis set               ... on
Rotationally invariant grid construction     ... off

Total number of grid points                  ...    22436
Total number of batches                      ...      355
Average number of points per batch           ...       63
Average number of grid points per atom       ...     2493
UseSFitting                                  ... on

Time for X-Grid setup             =    0.203 sec

 re-compute Schwartz prescreening matrix in partically contracted basis (1) ...done (   0.085 sec)
--------------
SCF ITERATIONS
--------------
ITER       Energy         Delta-E        Max-DP      RMS-DP      [F,P]     Damp
               ***  Starting incremental Fock matrix formation  ***
                      *** Initiating the SOSCF procedure ***
                      *** Re-Reading the Fockian *** 
                      *** Removing any level shift *** 
ITER      Energy       Delta-E        Grad      Rot      Max-DP    RMS-DP
  0   -154.94797669 -154.9479766915  0.003233  0.003233  0.006666  0.000510
               *** Restarting incremental Fock matrix formation ***
  1   -154.94842847  -0.0004517808  0.001202  0.001562  0.003764  0.000234
  2   -154.94846368  -0.0000352094  0.000378  0.000542  0.001372  0.000087
  3   -154.94846547  -0.0000017869  0.000353  0.000329  0.000595  0.000048
  4   -154.94846885  -0.0000033800  0.000110  0.000075  0.000292  0.000013
  5   -154.94846880   0.0000000471  0.000119  0.000044  0.000157  0.000008
  6   -154.94846894  -0.0000001416  0.000003  0.000004  0.000007  0.000000
                 **** Energy Check signals convergence ****
              ***Rediagonalizing the Fockian in SOSCF/NRSCF***

               *****************************************************
               *                     SUCCESS                       *
               *           SCF CONVERGED AFTER   7 CYCLES          *
               *****************************************************

Old exchange energy                            =     -4.146097688 Eh
New exchange energy                            =     -4.146090336 Eh
Exchange energy change after final integration =      0.000007352 Eh
Total energy after final integration           =   -154.948461591 Eh
Final COS-X integration done in                =     0.708 sec
Total Energy       :         -154.94846159 Eh           -4216.36200 eV
  Last Energy change         ...    1.9361e-10  Tolerance :   1.0000e-08
  Last MAX-Density change    ...    2.2204e-15  Tolerance :   1.0000e-07
             **** THE GBW FILE WAS UPDATED (Ethanol_orca_DFT.gbw) ****
             **** DENSITY Ethanol_orca_DFT.scfp WAS UPDATED ****
             **** ENERGY FILE WAS UPDATED (Ethanol_orca_DFT.en.tmp) ****
             **** THE GBW FILE WAS UPDATED (Ethanol_orca_DFT.gbw) ****
             **** DENSITY Ethanol_orca_DFT.scfp WAS UPDATED ****
Total SCF time: 0 days 0 hours 0 min 5 sec 

Maximum memory used throughout the entire SCF-calculation: 46.7 MB

-------------------------   --------------------
FINAL SINGLE POINT ENERGY      -154.948461591118
-------------------------   --------------------



           ************************************************************
           *        Program running with 2 parallel MPI-processes     *
           *              working on a common directory               *
           ************************************************************
------------------------------------------------------------------------------
                         ORCA SCF GRADIENT CALCULATION
------------------------------------------------------------------------------

 ... reading COSX grid (gridx3)
Gradient of the Kohn-Sham DFT energy:
Kohn-Sham wavefunction type      ... RKS
Hartree-Fock exchange scaling    ...    0.200
Number of operators              ...    1
Number of atoms                  ...    9
Basis set dimensions             ...   72
Integral neglect threshold       ... 2.5e-11
Integral primitive cutoff        ... 2.5e-12
SHARK Integral package           ... ON

Nuc. rep. gradient       (SHARK) ... done (  0.0 sec)
HCore & Overlap gradient (SHARK) ... done (  0.0 sec)
RI-J gradient            (SHARK) ... done (  0.2 sec)
COSX-gradient                    ... done (  1.0 sec)
Exchange-correlation gradient    ... done

------------------
CARTESIAN GRADIENT
------------------

   1   C   :   -0.000178065   -0.000003389   -0.000429225
   2   C   :    0.001011630   -0.002780387    0.005091831
   3   O   :   -0.001162684    0.000025491   -0.004016342
   4   H   :    0.000345096   -0.000100976    0.000607062
   5   H   :    0.000496555    0.001334156    0.000167929
   6   H   :   -0.000226487    0.000121352   -0.000643190
   7   H   :    0.000769914    0.001997580   -0.001632335
   8   H   :   -0.001443650   -0.000797789    0.000020331
   9   H   :    0.000399399    0.000238398    0.000807360

Difference to translation invariance:
           :    0.0000117064    0.0000344349   -0.0000265798

Difference to rotation invariance:
           :    0.0002659069    0.0000532970    0.0002303154

Norm of the cartesian gradient     ...    0.0081393607
RMS gradient                       ...    0.0015664207
MAX gradient                       ...    0.0050918305

-------
TIMINGS
-------

Total SCF gradient time            ...        2.225 sec

One electron gradient       ....       0.029 sec  (  1.3%)
RI-J Coulomb gradient       ....       0.181 sec  (  8.1%)
COSX gradient               ....       1.015 sec  ( 45.6%)
XC gradient                 ....       0.812 sec  ( 36.5%)

Maximum memory used throughout the entire SCFGRAD-calculation: 35.2 MB
------------------------------------------------------------------------------
                         ORCA GEOMETRY RELAXATION STEP
------------------------------------------------------------------------------

Reading the OPT-File                    .... done
Getting information on internals        .... done
Copying old internal coords+grads       .... done
Making the new internal coordinates     .... (new redundants).... done
Validating the new internal coordinates .... (new redundants).... done
Calculating the B-matrix                .... done
Calculating the G,G- and P matrices     .... done
Transforming gradient to internals      .... done
Projecting the internal gradient        .... done
Number of atoms                         ....   9
Number of internal coordinates          ....  33
Current Energy                          ....  -154.948461591 Eh
Current gradient norm                   ....     0.008139361 Eh/bohr
Maximum allowed component of the step   ....  0.300
Current trust radius                    ....  0.300
Updating the Hessian (BFGS)             .... done
Forming the augmented Hessian           .... done
Diagonalizing the augmented Hessian     .... done
Last element of RFO vector              ....  0.998956517
Lowest eigenvalues of augmented Hessian:
 -0.000222410  0.012394423  0.019835272  0.089002326  0.105920008
Length of the computed step             ....  0.045719121
The final length of the internal step   ....  0.045719121
Converting the step to cartesian space:
 Initial RMS(Int)=    0.0079586773
Transforming coordinates:
 Iter   0:  RMS(Cart)=    0.0115762152 RMS(Int)=    1.0917459739
 Iter   1:  RMS(Cart)=    0.0000847453 RMS(Int)=    0.0000714575
 Iter   2:  RMS(Cart)=    0.0000008123 RMS(Int)=    0.0000005997
 Iter   3:  RMS(Cart)=    0.0000000127 RMS(Int)=    0.0000000116
done
Storing new coordinates                 .... done

                                .--------------------.
          ----------------------|Geometry convergence|-------------------------
          Item                value                   Tolerance       Converged
          ---------------------------------------------------------------------
          Energy change      -0.0013292867            0.0000010000      NO
          RMS gradient        0.0010130062            0.0000300000      NO
          MAX gradient        0.0025892232            0.0001000000      NO
          RMS step            0.0079586773            0.0006000000      NO
          MAX step            0.0211427652            0.0010000000      NO
          ........................................................
          Max(Bonds)      0.0019      Max(Angles)    0.87
          Max(Dihed)        1.21      Max(Improp)    0.00
          ---------------------------------------------------------------------

The optimization has not yet converged - more geometry cycles are needed


    ---------------------------------------------------------------------------
                         Redundant Internal Coordinates
                            (Angstroem and degrees)

        Definition                    Value    dE/dq     Step     New-Value
    ----------------------------------------------------------------------------
     1. B(C   1,C   0)                1.5249 -0.000450  0.0013    1.5261   
     2. B(O   2,C   1)                1.4261  0.001354 -0.0015    1.4246   
     3. B(H   3,C   0)                1.1036  0.000257  0.0000    1.1037   
     4. B(H   4,C   0)                1.1045 -0.000358  0.0011    1.1057   
     5. B(H   5,C   0)                1.1021 -0.000107  0.0006    1.1027   
     6. B(H   6,C   1)                1.1088 -0.000626  0.0019    1.1106   
     7. B(H   7,C   1)                1.1014 -0.000504  0.0013    1.1027   
     8. B(H   8,O   2)                0.9677 -0.000886  0.0009    0.9686   
     9. A(C   1,C   0,H   5)          110.40  0.000373   -0.02    110.39   
    10. A(H   3,C   0,H   4)          108.19  0.000960   -0.41    107.77   
    11. A(H   3,C   0,H   5)          108.70  0.000121   -0.07    108.63   
    12. A(C   1,C   0,H   4)          110.68 -0.000578    0.14    110.82   
    13. A(C   1,C   0,H   3)          111.42 -0.000376    0.02    111.44   
    14. A(H   4,C   0,H   5)          107.33 -0.000483    0.34    107.67   
    15. A(H   6,C   1,H   7)          107.51  0.000252   -0.44    107.06   
    16. A(C   0,C   1,O   2)          112.03 -0.002507    0.73    112.76   
    17. A(O   2,C   1,H   7)          106.30  0.002589   -0.87    105.42   
    18. A(C   0,C   1,H   7)          110.10 -0.000816   -0.01    110.09   
    19. A(O   2,C   1,H   6)          110.10 -0.001417    0.86    110.96   
    20. A(C   0,C   1,H   6)          110.62  0.002001   -0.30    110.32   
    21. A(C   1,O   2,H   8)          107.19  0.000432   -0.10    107.09   
    22. D(H   6,C   1,C   0,H   5)   -179.85  0.001323   -0.68   -180.53   
    23. D(O   2,C   1,C   0,H   4)     62.09 -0.001570    1.21     63.30   
    24. D(H   6,C   1,C   0,H   3)     59.26  0.001168   -0.59     58.68   
    25. D(O   2,C   1,C   0,H   3)   -177.49 -0.000998    0.80   -176.69   
    26. D(O   2,C   1,C   0,H   5)    -56.60 -0.000842    0.71    -55.89   
    27. D(H   7,C   1,C   0,H   3)    -59.42  0.000123    0.17    -59.25   
    28. D(H   7,C   1,C   0,H   4)   -179.85 -0.000449    0.58   -179.27   
    29. D(H   7,C   1,C   0,H   5)     61.46  0.000279    0.08     61.54   
    30. D(H   6,C   1,C   0,H   4)    -61.16  0.000596   -0.18    -61.34   
    31. D(H   8,O   2,C   1,H   7)    178.89  0.000606   -0.18    178.71   
[...]
-----------------------

Scaling factor for frequencies =  1.000000000  (already applied!)

   0:         0.00 cm**-1
   1:         0.00 cm**-1
   2:         0.00 cm**-1
   3:         0.00 cm**-1
   4:         0.00 cm**-1
   5:         0.00 cm**-1
   6:       270.66 cm**-1
   7:       313.58 cm**-1
   8:       418.30 cm**-1
   9:       803.58 cm**-1
  10:       890.03 cm**-1
  11:      1060.50 cm**-1
  12:      1084.64 cm**-1
  13:      1130.26 cm**-1
  14:      1272.36 cm**-1
  15:      1366.74 cm**-1
  16:      1385.48 cm**-1
  17:      1413.66 cm**-1
  18:      1458.42 cm**-1
  19:      1465.25 cm**-1
  20:      1491.99 cm**-1
  21:      2961.82 cm**-1
  22:      3015.62 cm**-1
  23:      3060.71 cm**-1
  24:      3087.41 cm**-1
  25:      3107.30 cm**-1
  26:      3758.76 cm**-1


------------
NORMAL MODES
------------

These modes are the Cartesian displacements weighted by the diagonal matrix
M(i,i)=1/sqrt(m[i]) where m[i] is the mass of the displaced atom
Thus, these vectors are normalized but *not* orthogonal

                  0          1          2          3          4          5    
      0       0.000000   0.000000   0.000000   0.000000   0.000000   0.000000
      1       0.000000   0.000000   0.000000   0.000000   0.000000   0.000000
      2       0.000000   0.000000   0.000000   0.000000   0.000000   0.000000
      3       0.000000   0.000000   0.000000   0.000000   0.000000   0.000000
      4       0.000000   0.000000   0.000000   0.000000   0.000000   0.000000
      5       0.000000   0.000000   0.000000   0.000000   0.000000   0.000000
      6       0.000000   0.000000   0.000000   0.000000   0.000000   0.000000
      7       0.000000   0.000000   0.000000   0.000000   0.000000   0.000000
      8       0.000000   0.000000   0.000000   0.000000   0.000000   0.000000
      9       0.000000   0.000000   0.000000   0.000000   0.000000   0.000000
     10       0.000000   0.000000   0.000000   0.000000   0.000000   0.000000
     11       0.000000   0.000000   0.000000   0.000000   0.000000   0.000000
     12       0.000000   0.000000   0.000000   0.000000   0.000000   0.000000
     13       0.000000   0.000000   0.000000   0.000000   0.000000   0.000000
     14       0.000000   0.000000   0.000000   0.000000   0.000000   0.000000
     15       0.000000   0.000000   0.000000   0.000000   0.000000   0.000000
     16       0.000000   0.000000   0.000000   0.000000   0.000000   0.000000
     17       0.000000   0.000000   0.000000   0.000000   0.000000   0.000000
     18       0.000000   0.000000   0.000000   0.000000   0.000000   0.000000
     19       0.000000   0.000000   0.000000   0.000000   0.000000   0.000000
     20       0.000000   0.000000   0.000000   0.000000   0.000000   0.000000
     21       0.000000   0.000000   0.000000   0.000000   0.000000   0.000000
     22       0.000000   0.000000   0.000000   0.000000   0.000000   0.000000
     23       0.000000   0.000000   0.000000   0.000000   0.000000   0.000000
     24       0.000000   0.000000   0.000000   0.000000   0.000000   0.000000
     25       0.000000   0.000000   0.000000   0.000000   0.000000   0.000000
     26       0.000000   0.000000   0.000000   0.000000   0.000000   0.000000
                  6          7          8          9         10         11    
      0      -0.001266   0.023373   0.144095   0.002383   0.185460  -0.101282
      1       0.000069   0.016221   0.117089  -0.022407   0.105440   0.065838
      2       0.004475  -0.033991  -0.060126  -0.038333  -0.056908  -0.092505
      3      -0.000304   0.018045   0.109323  -0.002521  -0.099969   0.149853
      4       0.034259   0.000898  -0.138261  -0.033679   0.096318  -0.000345
      5       0.054678   0.050986   0.054970  -0.057835  -0.056449   0.058140
      6      -0.004787   0.016157  -0.238969  -0.001066  -0.079171  -0.004440
      7      -0.018382  -0.044702  -0.004856   0.002860  -0.121111   0.007306
      8      -0.046683  -0.026662   0.033036   0.015539   0.067631   0.001579
      9      -0.000346  -0.044518  -0.297472   0.024307   0.833994   0.283787
     10      -0.304246  -0.007834   0.267709   0.087572  -0.111397   0.008014
     11      -0.491322  -0.123529  -0.125191   0.156349   0.043180   0.103032
     12       0.061971   0.114427   0.326063  -0.430764  -0.038833  -0.523685
     13       0.524069   0.066621   0.302497   0.145526  -0.191631  -0.109738
     14      -0.040292  -0.076519  -0.142693   0.139075   0.049981   0.091235
     15      -0.074588  -0.013446   0.420809   0.429110  -0.109077  -0.187286
     16      -0.276933  -0.002623   0.292019   0.041149  -0.124371  -0.109752
     17       0.451281  -0.027178  -0.166663   0.185657   0.121786   0.168067
     18       0.026094   0.022848   0.159558   0.381901  -0.245957   0.140262
     19       0.000028  -0.034085  -0.081429  -0.064139  -0.022338   0.112192
     20       0.140041   0.113066  -0.007488   0.306904   0.025960  -0.169009
     21      -0.026656  -0.004615   0.153673  -0.398877  -0.213813   0.055722
     22       0.122746   0.068994  -0.118681   0.294603   0.002091  -0.317636
     23       0.064877   0.059307   0.037200   0.099413  -0.006113   0.100246
     24       0.108225  -0.824666   0.010644   0.012892   0.011609  -0.277076
     25      -0.182944   0.414457  -0.332776   0.118200  -0.034176  -0.479425
     26      -0.088487   0.275513  -0.058078   0.011870   0.042494   0.090844
                 12         13         14         15         16         17    
      0      -0.121921   0.022368   0.009732   0.061442   0.122481  -0.060466
      1       0.041936  -0.122161   0.038033  -0.045037   0.012916  -0.028605
      2       0.048874  -0.018444   0.103925   0.013436  -0.014521   0.011581
      3       0.206874  -0.029330  -0.006459   0.057334  -0.003061   0.118926
      4       0.111286   0.218954  -0.013420   0.045924  -0.001645   0.041945
      5      -0.152781   0.004417  -0.095848  -0.076704   0.041858   0.020366
      6      -0.082689  -0.000315   0.019478   0.010630  -0.018476  -0.032624
      7      -0.159320  -0.104361   0.007116   0.034348  -0.021334  -0.013820
      8       0.092916   0.027881   0.008074   0.033609  -0.029458  -0.036467
      9      -0.164657  -0.313315  -0.065412  -0.301652  -0.458517   0.175313
     10      -0.035409   0.119132  -0.096219   0.060481   0.250310  -0.034867
     11      -0.105024   0.115866  -0.172110  -0.062651  -0.000627   0.155977
     12       0.027014  -0.046984   0.294532  -0.225291  -0.340920   0.196038
     13      -0.032557   0.256448  -0.080610   0.099874  -0.048656   0.188315
     14      -0.023097  -0.002238  -0.020766   0.108134   0.173114  -0.095944
     15      -0.401496   0.465802  -0.245526  -0.124451  -0.470333   0.090655
     16       0.001171   0.102544   0.058724  -0.025297  -0.263859   0.075402
     17      -0.087841  -0.055602  -0.143287  -0.148879   0.056068  -0.048332
     18       0.289790   0.069439   0.437941  -0.577130   0.117083  -0.302335
     19      -0.046887   0.468360   0.179858  -0.397700   0.140722  -0.123607
     20       0.166675  -0.390319  -0.089125   0.234219  -0.107500  -0.001408
     21       0.330051   0.036411  -0.573270  -0.153990  -0.157264  -0.529069
     22       0.474957  -0.187739  -0.119839   0.086934  -0.198791  -0.413122
     23      -0.193726  -0.016751   0.128742  -0.003170   0.106255   0.286251
     24       0.219456  -0.123395  -0.196417  -0.201502   0.180241   0.190630
     25       0.341714  -0.255676  -0.348153  -0.380031   0.324584   0.368285
     26       0.006367   0.073661   0.072156   0.092790  -0.085492  -0.098422
                 18         19         20         21         22         23    
      0       0.007074  -0.016994  -0.008437  -0.001769   0.049654   0.004721
      1       0.023401   0.033877   0.014568  -0.006246   0.004726   0.002734
      2       0.038411  -0.021684  -0.008800  -0.002426   0.014816  -0.041117
      3       0.011687   0.039273  -0.029514  -0.034216  -0.004943   0.022953
      4       0.017505  -0.000293   0.067778   0.063686   0.002775   0.010416
      5       0.033154  -0.001123  -0.042043   0.025060  -0.001107   0.072205
      6      -0.008028  -0.000887  -0.001009   0.000855   0.000242  -0.000895
      7      -0.008413  -0.004595   0.006553   0.001423   0.000318  -0.000869
      8      -0.011956   0.005062  -0.002452  -0.001202  -0.000009  -0.001074
      9      -0.035374  -0.259035  -0.155051   0.014352  -0.167701  -0.090586
     10      -0.347777   0.088391   0.061712   0.050426  -0.419359  -0.227279
     11      -0.592181  -0.067045  -0.026962  -0.033258   0.263336   0.129348
     12      -0.352261   0.208166   0.133241   0.022056  -0.256408   0.110840
     13      -0.335800  -0.533013  -0.266237  -0.001083  -0.022771   0.011154
     14       0.179998  -0.082893  -0.051410   0.056268  -0.658437   0.271445
     15       0.274892   0.242411   0.128725  -0.011129  -0.152281  -0.076489
     16       0.279206  -0.158582  -0.083209   0.026214   0.385625   0.188289
     17      -0.245429   0.507811   0.266006   0.014997   0.217572   0.092413
     18      -0.048414  -0.235402   0.198195   0.337272   0.020238   0.052864
     19       0.022846   0.034976  -0.187304  -0.798255  -0.039980  -0.103996
     20      -0.018016  -0.252511   0.557769  -0.451832  -0.024271  -0.048434
     21      -0.010632  -0.202039   0.174357   0.050005   0.019063  -0.319466
     22      -0.103097   0.269318  -0.593091   0.015440   0.001098  -0.014945
     23       0.047536   0.079888  -0.101015   0.166362   0.043618  -0.813244
     24       0.075655  -0.005497  -0.011246   0.002666   0.000500   0.007298
     25       0.130728  -0.028327  -0.017082   0.000236   0.000957   0.003876
     26      -0.034888   0.006169   0.000354  -0.003164  -0.005027   0.015093
                 24         25         26    
      0      -0.004863  -0.004610  -0.000283
      1      -0.027500   0.088140   0.000184
      2       0.076857   0.025052  -0.000590
      3       0.011918   0.000652   0.001848
      4       0.004741   0.007524   0.001413
      5       0.038176   0.011651   0.002350
      6      -0.000484   0.000011   0.019545
      7      -0.000080  -0.000604  -0.002692
      8      -0.000991  -0.000110   0.059070
      9       0.216876  -0.166694   0.002017
     10       0.513454  -0.385904   0.001572
     11      -0.302604   0.251660  -0.001153
     12      -0.228970  -0.070705  -0.000798
     13      -0.026142   0.012031   0.000067
     14      -0.553319  -0.169042   0.003698
     15       0.062279   0.291344  -0.000190
     16      -0.154051  -0.684647  -0.000288
     17      -0.064876  -0.381215   0.000365
     18       0.028496   0.032290   0.001459
     19      -0.056978  -0.070169   0.001876
     20      -0.030575  -0.039589  -0.002994
     21      -0.162521  -0.039661  -0.006799
     22      -0.008565  -0.003625  -0.003959
     23      -0.408384  -0.097765  -0.015122
     24       0.007459   0.000411  -0.324562
     25       0.004738   0.001997   0.024423
     26       0.004795   0.000360  -0.943316


-----------
IR SPECTRUM
-----------

 Mode   freq       eps      Int      T**2         TX        TY        TZ
       cm**-1   L/(mol*cm) km/mol    a.u.
----------------------------------------------------------------------------
  6:    270.66   0.000448    2.26  0.000516  ( 0.014828 -0.017098  0.002048)
  7:    313.58   0.020846  105.35  0.020745  (-0.119666  0.056324  0.057034)
  8:    418.30   0.003156   15.95  0.002355  ( 0.041868 -0.023680 -0.006390)
  9:    803.58   0.000523    2.64  0.000203  (-0.002006  0.013650  0.003563)
 10:    890.03   0.001806    9.13  0.000633  ( 0.009171  0.021181 -0.010018)
 11:   1060.50   0.002612   13.20  0.000769  ( 0.001059 -0.023920  0.013977)
 12:   1084.64   0.019921  100.67  0.005731  ( 0.040763  0.054618 -0.032964)
 13:   1130.26   0.002074   10.48  0.000573  ( 0.001700  0.023456 -0.004409)
 14:   1272.36   0.002077   10.50  0.000509  (-0.011682 -0.018162  0.006568)
 15:   1366.74   0.000146    0.74  0.000033  ( 0.001067 -0.002616 -0.005029)
 16:   1385.48   0.000665    3.36  0.000150  (-0.002385  0.011804 -0.002162)
 17:   1413.66   0.010457   52.84  0.002308  ( 0.032458  0.032529 -0.014023)
 18:   1458.42   0.001648    8.33  0.000353  ( 0.006251  0.000934 -0.017686)
 19:   1465.25   0.000223    1.13  0.000047  ( 0.001263 -0.005594  0.003816)
 20:   1491.99   0.000034    0.17  0.000007  ( 0.002660  0.000194  0.000194)
 21:   2961.82   0.015956   80.63  0.001681  (-0.019632  0.035580  0.005455)
 22:   3015.62   0.003589   18.14  0.000371  ( 0.018060  0.003728  0.005603)
 23:   3060.71   0.002310   11.68  0.000236  ( 0.010158  0.003079  0.011086)
 24:   3087.41   0.011288   57.05  0.001141  ( 0.002490 -0.007286  0.032889)
 25:   3107.30   0.006272   31.70  0.000630  (-0.001290  0.023176  0.009543)
 26:   3758.76   0.002706   13.67  0.000225  (-0.001007  0.004070 -0.014389)

* The epsilon (eps) is given for a Dirac delta lineshape.
** The dipole moment derivative (T) already includes vibrational overlap.

The first frequency considered to be a vibration is 6
The total number of vibrations considered is 21


--------------------------
THERMOCHEMISTRY AT 298.15K
--------------------------

Temperature         ... 298.15 K
Pressure            ... 1.00 atm
Total Mass          ... 46.07 AMU

Throughout the following assumptions are being made:
  (1) The electronic state is orbitally nondegenerate
  (2) There are no thermally accessible electronically excited states
  (3) Hindered rotations indicated by low frequency modes are not
      treated as such but are treated as vibrations and this may
      cause some error
  (4) All equations used are the standard statistical mechanics
      equations for an ideal gas
  (5) All vibrations are strictly harmonic

freq.     270.66  E(vib)   ...       0.29 
freq.     313.58  E(vib)   ...       0.25 
freq.     418.30  E(vib)   ...       0.18 
freq.     803.58  E(vib)   ...       0.05 
freq.     890.03  E(vib)   ...       0.04 
freq.    1060.50  E(vib)   ...       0.02 
freq.    1084.64  E(vib)   ...       0.02 
freq.    1130.26  E(vib)   ...       0.01 
freq.    1272.36  E(vib)   ...       0.01 
freq.    1366.74  E(vib)   ...       0.01 
freq.    1385.48  E(vib)   ...       0.00 
freq.    1413.66  E(vib)   ...       0.00 
freq.    1458.42  E(vib)   ...       0.00 
freq.    1465.25  E(vib)   ...       0.00 
freq.    1491.99  E(vib)   ...       0.00 
freq.    2961.82  E(vib)   ...       0.00 
freq.    3015.62  E(vib)   ...       0.00 
freq.    3060.71  E(vib)   ...       0.00 
freq.    3087.41  E(vib)   ...       0.00 
freq.    3107.30  E(vib)   ...       0.00 
freq.    3758.76  E(vib)   ...       0.00 

------------
INNER ENERGY
------------

The inner energy is: U= E(el) + E(ZPE) + E(vib) + E(rot) + E(trans)
    E(el)   - is the total energy from the electronic structure calculation
              = E(kin-el) + E(nuc-el) + E(el-el) + E(nuc-nuc)
    E(ZPE)  - the the zero temperature vibrational energy from the frequency calculation
    E(vib)  - the the finite temperature correction to E(ZPE) due to population
              of excited vibrational states
    E(rot)  - is the rotational thermal energy
    E(trans)- is the translational thermal energy

Summary of contributions to the inner energy U:
Electronic energy                ...   -154.94861604 Eh
Zero point energy                ...      0.07931912 Eh      49.77 kcal/mol
Thermal vibrational correction   ...      0.00141741 Eh       0.89 kcal/mol
Thermal rotational correction    ...      0.00141627 Eh       0.89 kcal/mol
Thermal translational correction ...      0.00141627 Eh       0.89 kcal/mol
-----------------------------------------------------------------------
Total thermal energy                   -154.86504697 Eh


Summary of corrections to the electronic energy:
(perhaps to be used in another calculation)
Total thermal correction                  0.00424995 Eh       2.67 kcal/mol
Non-thermal (ZPE) correction              0.07931912 Eh      49.77 kcal/mol
-----------------------------------------------------------------------
Total correction                          0.08356907 Eh      52.44 kcal/mol


--------
ENTHALPY
--------

The enthalpy is H = U + kB*T
                kB is Boltzmann's constant
Total free energy                 ...   -154.86504697 Eh 
Thermal Enthalpy correction       ...      0.00094421 Eh       0.59 kcal/mol
-----------------------------------------------------------------------
Total Enthalpy                    ...   -154.86410276 Eh


Note: Only C1 symmetry has been detected, increase convergence thresholds 
      if your molecule has a higher symmetry. Symmetry factor of 1.0 is   
      used for the rotational entropy correction. 
 

Note: Rotational entropy computed according to Herzberg 
Infrared and Raman Spectra, Chapter V,1, Van Nostrand Reinhold, 1945 
Point Group:  C1, Symmetry Number:   1  
Rotational constants in cm-1:     1.139576     0.304716     0.269364 

Vibrational entropy computed according to the QRRHO of S. Grimme
Chem.Eur.J. 2012 18 9955


-------
ENTROPY
-------

The entropy contributions are T*S = T*(S(el)+S(vib)+S(rot)+S(trans))
     S(el)   - electronic entropy
     S(vib)  - vibrational entropy
     S(rot)  - rotational entropy
     S(trans)- translational entropy
The entropies will be listed as multiplied by the temperature to get
units of energy

Electronic entropy                ...      0.00000000 Eh      0.00 kcal/mol
Vibrational entropy               ...      0.00214563 Eh      1.35 kcal/mol
Rotational entropy                ...      0.01062939 Eh      6.67 kcal/mol
Translational entropy             ...      0.01777359 Eh     11.15 kcal/mol
-----------------------------------------------------------------------
Final entropy term                ...      0.03054861 Eh     19.17 kcal/mol

In case the symmetry of your molecule has not been determined correctly
or in case you have a reason to use a different symmetry number we print 
out the resulting rotational entropy values for sn=1,12 :
 --------------------------------------------------------
|  sn= 1 | S(rot)=       0.01062939 Eh      6.67 kcal/mol|
|  sn= 2 | S(rot)=       0.00997493 Eh      6.26 kcal/mol|
|  sn= 3 | S(rot)=       0.00959210 Eh      6.02 kcal/mol|
|  sn= 4 | S(rot)=       0.00932047 Eh      5.85 kcal/mol|
|  sn= 5 | S(rot)=       0.00910979 Eh      5.72 kcal/mol|
|  sn= 6 | S(rot)=       0.00893764 Eh      5.61 kcal/mol|
|  sn= 7 | S(rot)=       0.00879210 Eh      5.52 kcal/mol|
|  sn= 8 | S(rot)=       0.00866602 Eh      5.44 kcal/mol|
|  sn= 9 | S(rot)=       0.00855481 Eh      5.37 kcal/mol|
|  sn=10 | S(rot)=       0.00845533 Eh      5.31 kcal/mol|
|  sn=11 | S(rot)=       0.00836534 Eh      5.25 kcal/mol|
|  sn=12 | S(rot)=       0.00828319 Eh      5.20 kcal/mol|
 --------------------------------------------------------


-------------------
GIBBS FREE ENERGY
-------------------

The Gibbs free energy is G = H - T*S

Total enthalpy                    ...   -154.86410276 Eh 
Total entropy correction          ...     -0.03054861 Eh    -19.17 kcal/mol
-----------------------------------------------------------------------
Final Gibbs free energy         ...   -154.89465137 Eh

For completeness - the Gibbs free energy minus the electronic energy
G-E(el)                           ...      0.05396467 Eh     33.86 kcal/mol


Timings for individual modules:

Sum of individual times         ...      795.672 sec (=  13.261 min)
GTO integral calculation        ...       13.548 sec (=   0.226 min)   1.7 %
SCF iterations                  ...       53.641 sec (=   0.894 min)   6.7 %
SCF Gradient evaluation         ...       28.213 sec (=   0.470 min)   3.5 %
Geometry relaxation             ...      662.467 sec (=  11.041 min)  83.3 %
Analytical frequency calculation...       37.803 sec (=   0.630 min)   4.8 %
                             ****ORCA TERMINATED NORMALLY****
TOTAL RUN TIME: 0 days 0 hours 31 minutes 54 seconds 436 msec
