 Entering Gaussian System, Link 0=/opt/gaussian/g16/sse4/g16/g16
 Initial command:
 /opt/gaussian/g16/sse4/g16/l1.exe "/scratch/1554104/Gau-11797.inp" -scrdir="/scratch/1554104/"
 Entering Link 1 = /opt/gaussian/g16/sse4/g16/l1.exe PID=     11802.
  
 Copyright (c) 1988,1990,1992,1993,1995,1998,2003,2009,2016,
            Gaussian, Inc.  All Rights Reserved.
  
 This is part of the Gaussian(R) 16 program.  It is based on
 the Gaussian(R) 09 system (copyright 2009, Gaussian, Inc.),
 the Gaussian(R) 03 system (copyright 2003, Gaussian, Inc.),
 the Gaussian(R) 98 system (copyright 1998, Gaussian, Inc.),
 the Gaussian(R) 94 system (copyright 1995, Gaussian, Inc.),
 the Gaussian 92(TM) system (copyright 1992, Gaussian, Inc.),
 the Gaussian 90(TM) system (copyright 1990, Gaussian, Inc.),
 the Gaussian 88(TM) system (copyright 1988, Gaussian, Inc.),
 the Gaussian 86(TM) system (copyright 1986, Carnegie Mellon
 University), and the Gaussian 82(TM) system (copyright 1983,
 Carnegie Mellon University). Gaussian is a federally registered
 trademark of Gaussian, Inc.
  
 This software contains proprietary and confidential information,
 including trade secrets, belonging to Gaussian, Inc.
  
 This software is provided under written license and may be
 used, copied, transmitted, or stored only in accord with that
 written license.
  
 The following legend is applicable only to US Government
 contracts under FAR:
  
                    RESTRICTED RIGHTS LEGEND
  
 Use, reproduction and disclosure by the US Government is
 subject to restrictions as set forth in subparagraphs (a)
 and (c) of the Commercial Computer Software - Restricted
 Rights clause in FAR 52.227-19.
  
 Gaussian, Inc.
 340 Quinnipiac St., Bldg. 40, Wallingford CT 06492
  
  
 ---------------------------------------------------------------
 Warning -- This program may not be used in any manner that
 competes with the business of Gaussian, Inc. or will provide
 assistance to any competitor of Gaussian, Inc.  The licensee
 of this program is prohibited from giving any competitor of
 Gaussian, Inc. access to this program.  By using this program,
 the user acknowledges that Gaussian, Inc. is engaged in the
 business of creating and licensing software in the field of
 computational chemistry and represents and warrants to the
 licensee that it is not a competitor of Gaussian, Inc. and that
 it will not use this program in any manner prohibited above.
 ---------------------------------------------------------------
  

 Cite this work as:
 Gaussian 16, Revision A.03,
 M. J. Frisch, G. W. Trucks, H. B. Schlegel, G. E. Scuseria, 
 M. A. Robb, J. R. Cheeseman, G. Scalmani, V. Barone, 
 G. A. Petersson, H. Nakatsuji, X. Li, M. Caricato, A. V. Marenich, 
 J. Bloino, B. G. Janesko, R. Gomperts, B. Mennucci, H. P. Hratchian, 
 J. V. Ortiz, A. F. Izmaylov, J. L. Sonnenberg, D. Williams-Young, 
 F. Ding, F. Lipparini, F. Egidi, J. Goings, B. Peng, A. Petrone, 
 T. Henderson, D. Ranasinghe, V. G. Zakrzewski, J. Gao, N. Rega, 
 G. Zheng, W. Liang, M. Hada, M. Ehara, K. Toyota, R. Fukuda, 
 J. Hasegawa, M. Ishida, T. Nakajima, Y. Honda, O. Kitao, H. Nakai, 
 T. Vreven, K. Throssell, J. A. Montgomery, Jr., J. E. Peralta, 
 F. Ogliaro, M. J. Bearpark, J. J. Heyd, E. N. Brothers, K. N. Kudin, 
 V. N. Staroverov, T. A. Keith, R. Kobayashi, J. Normand, 
 K. Raghavachari, A. P. Rendell, J. C. Burant, S. S. Iyengar, 
 J. Tomasi, M. Cossi, J. M. Millam, M. Klene, C. Adamo, R. Cammi, 
 J. W. Ochterski, R. L. Martin, K. Morokuma, O. Farkas, 
 J. B. Foresman, and D. J. Fox, Gaussian, Inc., Wallingford CT, 2016.
 
 ******************************************
 Gaussian 16:  ES64L-G16RevA.03 25-Dec-2016
                 7-Mar-2022 
 ******************************************
 %chk=Methane.chk
 %mem=4GB
 %nprocshared=1
 Will use up to    1 processors via shared memory.
 -----------------------------------
 # td=(nstates=30) cam-b3lyp/cc-pVDZ
 -----------------------------------
 1/38=1,172=1/1;
 2/12=2,17=6,18=5,40=1/2;
 3/5=16,11=9,25=1,30=1,74=-40/1,2,3,8;
 4//1;
 5/5=2,38=5/2;
 8/6=1,10=1,108=30/1;
 9/41=30,42=1,70=2/14;
 6/7=2,8=2,9=2,10=2/1;
 99/5=1,9=1/99;
 -----------
 Methane.xyz
 -----------
 Symbolic Z-matrix:
 Charge =  0 Multiplicity = 1
 C                     1.01825   0.09315   0.03147 
 H                     2.11045   0.09315   0.03147 
 H                     0.65419  -0.6028    0.79043 
 H                     0.65418  -0.21615  -0.95071 
 H                     0.65418   1.0984    0.2547 
 
                          Input orientation:                          
 ---------------------------------------------------------------------
 Center     Atomic      Atomic             Coordinates (Angstroms)
 Number     Number       Type             X           Y           Z
 ---------------------------------------------------------------------
      1          6           0        1.018250    0.093150    0.031470
      2          1           0        2.110450    0.093150    0.031470
      3          1           0        0.654190   -0.602800    0.790430
      4          1           0        0.654180   -0.216150   -0.950710
      5          1           0        0.654180    1.098400    0.254700
 ---------------------------------------------------------------------
                    Distance matrix (angstroms):
                    1          2          3          4          5
     1  C    0.000000
     2  H    1.092200   0.000000
     3  H    1.092203   1.783553   0.000000
     4  H    1.092195   1.783554   1.783555   0.000000
     5  H    1.092202   1.783559   1.783561   1.783551   0.000000
 This structure is nearly, but not quite of a higher symmetry.
 Consider Symm=Loose if the higher symmetry is desired.
 Stoichiometry    CH4
 Framework group  C1[X(CH4)]
 Deg. of freedom     9
 Full point group                 C1      NOp   1
 Largest Abelian subgroup         C1      NOp   1
 Largest concise Abelian subgroup C1      NOp   1
                         Standard orientation:                         
 ---------------------------------------------------------------------
 Center     Atomic      Atomic             Coordinates (Angstroms)
 Number     Number       Type             X           Y           Z
 ---------------------------------------------------------------------
      1          6           0        0.000001   -0.000000   -0.000001
      2          1           0        0.238897    1.049174    0.187251
      3          1           0       -0.103162   -0.525400    0.951954
      4          1           0        0.802074   -0.457527   -0.583300
      5          1           0       -0.937812   -0.066247   -0.555900
 ---------------------------------------------------------------------
 Rotational constants (GHZ):         157.6379695         157.6370300         157.6367913
 Standard basis: CC-pVDZ (5D, 7F)
 There are    35 symmetry adapted cartesian basis functions of A   symmetry.
 There are    34 symmetry adapted basis functions of A   symmetry.
    34 basis functions,    61 primitive gaussians,    35 cartesian basis functions
     5 alpha electrons        5 beta electrons
       nuclear repulsion energy        13.4083251507 Hartrees.
 NAtoms=    5 NActive=    5 NUniq=    5 SFac= 1.00D+00 NAtFMM=   60 NAOKFM=F Big=F
 Integral buffers will be    131072 words long.
 Raffenetti 1 integral format.
 Two-electron integral symmetry is turned on.
 One-electron integrals computed using PRISM.
 NBasis=    34 RedAO= T EigKep=  2.35D-02  NBF=    34
 NBsUse=    34 1.00D-06 EigRej= -1.00D+00 NBFU=    34
 ExpMin= 1.22D-01 ExpMax= 6.67D+03 ExpMxC= 2.28D+02 IAcc=3 IRadAn=         5 AccDes= 0.00D+00
 Harris functional with IExCor=20419 and IRadAn=       5 diagonalized for initial guess.
 HarFok:  IExCor=20419 AccDes= 0.00D+00 IRadAn=         5 IDoV= 1 UseB2=F ITyADJ=14
 ICtDFT=  3500011 ScaDFX=  1.000000  1.000000  1.000000  1.000000
 FoFCou: FMM=F IPFlag=           0 FMFlag=      100000 FMFlg1=           0
         NFxFlg=           0 DoJE=T BraDBF=F KetDBF=T FulRan=T
         wScrn=  0.000000 ICntrl=       500 IOpCl=  0 I1Cent=   200000004 NGrid=           0
         NMat0=    1 NMatS0=      1 NMatT0=    0 NMatD0=    1 NMtDS0=    0 NMtDT0=    0
 Petite list used in FoFCou.
 Keep R1 ints in memory in canonical form, NReq=1217792.
 Requested convergence on RMS density matrix=1.00D-08 within 128 cycles.
 Requested convergence on MAX density matrix=1.00D-06.
 Requested convergence on             energy=1.00D-06.
 No special actions if energy rises.
 Integral accuracy reduced to 1.0D-05 until final iterations.
 Initial convergence to 1.0D-05 achieved.  Increase integral accuracy.
 SCF Done:  E(RCAM-B3LYP) =  -40.4822080091     A.U. after    9 cycles
            NFock=  9  Conv=0.12D-08     -V/T= 2.0101
 DoSCS=F DFT=T ScalE2(SS,OS)=  1.000000  1.000000
 ExpMin= 1.22D-01 ExpMax= 6.67D+03 ExpMxC= 2.28D+02 IAcc=3 IRadAn=         5 AccDes= 0.00D+00
 HarFok:  IExCor=  205 AccDes= 0.00D+00 IRadAn=         5 IDoV=-2 UseB2=F ITyADJ=14
 ICtDFT= 12500011 ScaDFX=  1.000000  1.000000  1.000000  1.000000
 Range of M.O.s used for correlation:     2    34
 NBasis=    34 NAE=     5 NBE=     5 NFC=     1 NFV=     0
 NROrb=     33 NOA=     4 NOB=     4 NVA=    29 NVB=    29
 Keep R1, R2, and R3 ints in memory in canonical form, NReq=3739011.
 Orbital symmetries:
       Occupied  (A) (A) (A) (A) (A)
       Virtual   (A) (A) (A) (A) (A) (A) (A) (A) (A) (A) (A) (A)
                 (A) (A) (A) (A) (A) (A) (A) (A) (A) (A) (A) (A)
                 (A) (A) (A) (A) (A)
   116 initial guesses have been made.
 Convergence on wavefunction:    0.001000000000000
 *** WARNING: Number of orthogonal guesses is          116
 Iteration     1 Dimension   116 NMult     0 NNew    116
 CISAX will form   116 AO SS matrices at one time.
 New state      4 was old state      6
 New state      5 was old state      8
 New state      6 was old state      9
 New state      8 was old state     10
 New state      9 was old state      4
 New state     10 was old state     11
 New state     11 was old state     12
 New state     12 was old state      5
 New state     13 was old state     15
 New state     14 was old state     18
 New state     15 was old state     20
 New state     16 was old state     14
 New state     17 was old state     22
 New state     18 was old state     13
 New state     19 was old state     16
 New state     20 was old state     19
 New state     22 was old state     17
 New state     26 was old state     27
 New state     27 was old state     31
 New state     28 was old state     33
 New state     29 was old state     28
 ***********************************************************************
 Excited states from <AA,BB:AA,BB> singles matrix:
 ***********************************************************************
 
 Ground to excited state transition densities written to RWF  633
 Ground to excited state transition electric dipole moments (Au):
       state          X           Y           Z        Dip. S.      Osc.
         1         0.2084      0.6546     -0.4349      0.6611      0.1889
         2         0.7642     -0.0637      0.2703      0.6611      0.1889
         3        -0.1835      0.4781      0.6316      0.6611      0.1889
         4         0.0000     -0.0000      0.0000      0.0000      0.0000
         5         0.0000      0.0000     -0.0000      0.0000      0.0000
         6        -0.0000      0.0000     -0.0000      0.0000      0.0000
         7        -0.0000     -0.0000      0.0000      0.0000      0.0000
         8         0.0000      0.0000      0.0000      0.0000      0.0000
         9         0.4236     -0.0090      1.0739      1.3329      0.4480
        10        -0.4303     -1.0592      0.1608      1.3329      0.4480
        11         0.9840     -0.4593     -0.3920      1.3329      0.4480
        12         0.0000     -0.0000     -0.0000      0.0000      0.0000
        13        -0.0000      0.0000     -0.0000      0.0000      0.0000
        14         0.0000      0.0000      0.0000      0.0000      0.0000
        15         0.0000      0.0000      0.0000      0.0000      0.0000
        16         0.0000      0.0000     -0.0000      0.0000      0.0000
        17        -0.0000     -0.0000     -0.0000      0.0000      0.0000
        18        -0.0000     -0.0000      0.0000      0.0000      0.0000
        19         0.1388      0.2010      0.7290      0.5911      0.3139
        20         0.0128      0.7404     -0.2066      0.5911      0.3139
        21        -0.7561      0.0494      0.1303      0.5911      0.3139
        22        -0.0000      0.0000     -0.0000      0.0000      0.0000
        23         0.0588     -0.1223      0.2143      0.0643      0.0352
        24         0.1780      0.1735      0.0502      0.0643      0.0352
        25         0.1708     -0.1388     -0.1260      0.0643      0.0352
        26        -0.0000      0.0000     -0.0000      0.0000      0.0000
        27        -0.0000     -0.0000      0.0000      0.0000      0.0000
        28         0.0000     -0.0000      0.0000      0.0000      0.0000
        29        -0.0000     -0.0000      0.0000      0.0000      0.0000
        30        -0.0000     -0.0000     -0.0000      0.0000      0.0000
 Ground to excited state transition velocity dipole moments (Au):
       state          X           Y           Z        Dip. S.      Osc.
         1        -0.0976     -0.3067      0.2038      0.1451      0.2256
         2        -0.3580      0.0298     -0.1266      0.1451      0.2256
         3         0.0860     -0.2240     -0.2959      0.1451      0.2256
         4        -0.0000      0.0000     -0.0000      0.0000      0.0000
         5        -0.0000     -0.0000      0.0000      0.0000      0.0000
         6         0.0000     -0.0000      0.0000      0.0000      0.0000
         7         0.0000      0.0000     -0.0000      0.0000      0.0000
         8        -0.0000     -0.0000     -0.0000      0.0000      0.0000
         9        -0.2207      0.0047     -0.5595      0.3618      0.4784
        10         0.2242      0.5518     -0.0838      0.3618      0.4784
        11        -0.5127      0.2393      0.2042      0.3618      0.4784
        12        -0.0000      0.0000      0.0000      0.0000      0.0000
        13         0.0000     -0.0000      0.0000      0.0000      0.0000
        14        -0.0000     -0.0000     -0.0000      0.0000      0.0000
        15        -0.0000     -0.0000     -0.0000      0.0000      0.0000
        16        -0.0000     -0.0000      0.0000      0.0000      0.0000
        17         0.0000      0.0000      0.0000      0.0000      0.0000
        18        -0.0000      0.0000     -0.0000      0.0000      0.0000
        19        -0.0982     -0.1422     -0.5156      0.2957      0.2475
        20        -0.0090     -0.5237      0.1461      0.2957      0.2475
        21         0.5348     -0.0349     -0.0922      0.2957      0.2475
        22         0.0000     -0.0000      0.0000      0.0000      0.0000
        23        -0.0497      0.1035     -0.1813      0.0460      0.0374
        24        -0.1506     -0.1468     -0.0425      0.0460      0.0374
        25        -0.1445      0.1174      0.1066      0.0460      0.0374
        26         0.0000     -0.0000      0.0000      0.0000      0.0000
        27         0.0000      0.0000     -0.0000      0.0000      0.0000
        28        -0.0000      0.0000     -0.0000      0.0000      0.0000
        29         0.0000      0.0000     -0.0000      0.0000      0.0000
        30         0.0000      0.0000      0.0000      0.0000      0.0000
 Ground to excited state transition magnetic dipole moments (Au):
       state          X           Y           Z
         1         0.0000      0.0000      0.0000
         2        -0.0000     -0.0000      0.0000
         3         0.0000     -0.0000      0.0000
         4        -0.2765      0.4414      0.5162
         5         0.6749      0.1166      0.2619
         6        -0.0756     -0.5739      0.4502
         7        -0.0000     -0.0000     -0.0000
         8        -0.0000      0.0000     -0.0000
         9         0.0000     -0.0000      0.0000
        10         0.0000     -0.0000      0.0000
        11         0.0000     -0.0000      0.0000
        12         0.0000     -0.0000     -0.0000
        13         0.0317      0.4233      0.7364
        14         0.7528     -0.3553      0.1718
        15        -0.3934     -0.6458      0.3881
        16         0.0001      0.0000      0.0001
        17         0.0001      0.0001     -0.0001
        18        -0.0000      0.0000      0.0000
        19        -0.0000      0.0000     -0.0000
        20        -0.0000     -0.0000     -0.0000
        21        -0.0000     -0.0000      0.0000
        22         0.0000     -0.0000     -0.0000
        23         0.0000      0.0000      0.0000
        24        -0.0000      0.0000     -0.0000
        25         0.0000      0.0000      0.0000
        26         0.0975     -0.1340     -0.1504
        27        -0.2014     -0.0632     -0.0743
        28         0.0020      0.1677     -0.1481
        29         0.0000      0.0000      0.0000
        30        -0.0000     -0.0000      0.0000
 Ground to excited state transition velocity quadrupole moments (Au):
       state          XX          YY          ZZ          XY          XZ          YZ
         1        -0.0526     -0.2544      0.3070     -0.0372     -0.0242     -0.2638
         2         0.2084     -0.1624     -0.0460      0.0853      0.3302     -0.0116
         3         0.2972     -0.2783     -0.0190     -0.2014     -0.1069      0.1317
         4         0.0000      0.0000     -0.0000      0.0000      0.0000      0.0000
         5         0.0000     -0.0000      0.0000     -0.0000     -0.0000     -0.0000
         6        -0.0000      0.0000      0.0000     -0.0000     -0.0000      0.0000
         7         0.0167     -0.0147     -0.0020      0.0327     -0.0174      0.0013
         8        -0.0213     -0.0124      0.0336      0.0055      0.0055      0.0263
         9         0.7832     -0.4038     -0.3794     -0.1284      0.3574      0.4160
        10        -0.2344      0.8254     -0.5910      0.1894     -0.0396      0.4443
        11        -0.1341      0.1240      0.0102      0.4459      0.6988     -0.2717
        12        -1.0562     -1.0562     -1.0562      0.0000      0.0000     -0.0000
        13        -0.0000      0.0000     -0.0000     -0.0001      0.0000     -0.0000
        14        -0.0000      0.0000     -0.0000     -0.0001      0.0000     -0.0000
        15        -0.0001     -0.0001      0.0002      0.0001      0.0000      0.0001
        16         0.4382     -0.3861     -0.0521      0.8568     -0.4570      0.0335
        17        -0.5575     -0.3240      0.8816      0.1462      0.1441      0.6909
        18        -0.5349     -0.5349     -0.5348     -0.0000      0.0000      0.0001
        19         0.1077     -0.0737     -0.0340     -0.0363      0.0204      0.0513
        20         0.0076     -0.0919      0.0843     -0.0352     -0.0325     -0.0580
        21        -0.0150      0.0318     -0.0168     -0.0424     -0.0960      0.0411
        22         1.5560      1.5560      1.5561      0.0000      0.0000      0.0000
        23        -0.5734     -0.0516      0.6250     -0.0236     -0.3740     -0.5592
        24        -0.5208      0.8753     -0.3544      0.1063     -0.3796      0.2780
        25         0.3445     -0.3624      0.0180     -0.5011     -0.6022      0.2742
        26         0.0000     -0.0000     -0.0000      0.0000      0.0000      0.0000
        27        -0.0000     -0.0000      0.0000      0.0000     -0.0000      0.0000
        28         0.0000      0.0000     -0.0000      0.0000     -0.0000     -0.0000
        29         0.1140     -0.1008     -0.0131      0.2235     -0.1191      0.0091
        30         0.1456      0.0843     -0.2299     -0.0377     -0.0378     -0.1801
 <0|del|b> * <b|rxdel|0> + <0|del|b> * <b|delr+rdel|0>
 Rotatory Strengths (R) in cgs (10**-40 erg-esu-cm/Gauss)
       state          XX          YY          ZZ    R(velocity)    E-M Angle
         1       -12.3752     27.4867    -15.1115      0.0000       90.00
         2       -17.0372     12.3307      4.7065     -0.0000       90.00
         3        29.4120    -39.8169     10.4048      0.0000       90.00
         4         0.0003     -0.0032      0.0040      0.0004       90.00
         5        -0.0004     -0.0015     -0.0037     -0.0019       90.00
         6         0.0032     -0.0000      0.0012      0.0014       90.00
         7         0.0000      0.0003     -0.0003     -0.0000       90.00
         8        -0.0000     -0.0003      0.0003      0.0000       90.00
         9        49.2133   -114.7866     65.5703     -0.0010       90.00
        10         4.1751     80.9796    -85.1483      0.0021       90.00
        11       -53.3920     33.8125     19.5762     -0.0011       90.00
        12         0.0000      0.0000     -0.0000     -0.0000       90.00
        13        -0.0001      0.0009     -0.0010     -0.0001       90.00
        14         0.0010     -0.0006      0.0006      0.0003       90.00
        15        -0.0006     -0.0007      0.0005     -0.0003       90.00
        16        -0.0000     -0.0003      0.0004     -0.0000       90.00
        17         0.0000      0.0003     -0.0004      0.0000       90.00
        18         0.0000     -0.0000      0.0000     -0.0000       90.00
        19         9.5981    -10.5453      0.9470     -0.0001       90.00
        20        -9.8439      2.5131      7.3315      0.0002       90.00
        21         0.2438      8.0351     -8.2794     -0.0002       90.00
        22         0.0000     -0.0000     -0.0000     -0.0000       90.00
        23        18.5056     10.1288    -28.6344      0.0000       90.00
        24       -25.9317    -16.0805     42.0122     -0.0000       90.00
        25         7.4282      5.9486    -13.3768      0.0000       90.00
        26         0.0000     -0.0001      0.0002      0.0000       90.00
        27        -0.0001     -0.0001     -0.0002     -0.0001       90.00
        28         0.0002      0.0000      0.0002      0.0001       90.00
        29         0.0000      0.0001     -0.0001      0.0000       90.00
        30        -0.0000     -0.0001      0.0002     -0.0000       90.00
 1/2[<0|r|b>*<b|rxdel|0> + (<0|rxdel|b>*<b|r|0>)*]
 Rotatory Strengths (R) in cgs (10**-40 erg-esu-cm/Gauss)
       state          XX          YY          ZZ     R(length)
         1        -0.0003     -0.0013      0.0016      0.0000
         2         0.0003     -0.0003     -0.0001     -0.0000
         3         0.0002      0.0014     -0.0015      0.0000
         4         0.0005      0.0072     -0.0066      0.0004
         5        -0.0046     -0.0025      0.0017     -0.0018
         6        -0.0019      0.0042      0.0018      0.0014
         7        -0.0000     -0.0000      0.0000     -0.0000
         8         0.0000     -0.0000      0.0000      0.0000
         9        -0.0024     -0.0001     -0.0004     -0.0010
        10         0.0105     -0.0040     -0.0003      0.0021
        11        -0.0008     -0.0067      0.0043     -0.0011
        12        -0.0000     -0.0000     -0.0000     -0.0000
        13         0.0000     -0.0024      0.0021     -0.0001
        14        -0.0011      0.0026     -0.0002      0.0004
        15         0.0004      0.0007     -0.0021     -0.0003
        16        -0.0000     -0.0000      0.0000     -0.0000
        17         0.0000      0.0000     -0.0000      0.0000
        18        -0.0000      0.0000     -0.0000     -0.0000
        19         0.0001     -0.0008      0.0004     -0.0001
        20         0.0000      0.0013     -0.0006      0.0003
        21        -0.0006      0.0002     -0.0001     -0.0002
        22         0.0000      0.0000     -0.0000     -0.0000
        23        -0.0000      0.0003     -0.0002      0.0000
        24         0.0002     -0.0003      0.0001     -0.0000
        25        -0.0001      0.0000      0.0001      0.0000
        26         0.0000      0.0003     -0.0003      0.0000
        27        -0.0003     -0.0002      0.0001     -0.0001
        28        -0.0000      0.0003      0.0000      0.0001
        29         0.0000      0.0000     -0.0000      0.0000
        30        -0.0000     -0.0000      0.0000     -0.0000
  1/2[<0|del|b>*<b|r|0> + (<0|r|b>*<b|del|0>)*] (Au)
       state          X           Y           Z        Dip. S.   Osc.(frdel)
         1        -0.0203     -0.2007     -0.0886      0.3097      0.2065
         2        -0.2736     -0.0019     -0.0342      0.3097      0.2065
         3        -0.0158     -0.1071     -0.1869      0.3097      0.2065
         4        -0.0000     -0.0000     -0.0000      0.0000      0.0000
         5        -0.0000     -0.0000     -0.0000      0.0000      0.0000
         6        -0.0000     -0.0000     -0.0000      0.0000      0.0000
         7        -0.0000     -0.0000     -0.0000      0.0000      0.0000
         8        -0.0000     -0.0000     -0.0000      0.0000      0.0000
         9        -0.0935     -0.0000     -0.6009      0.6944      0.4629
        10        -0.0965     -0.5845     -0.0135      0.6944      0.4629
        11        -0.5045     -0.1099     -0.0801      0.6944      0.4629
        12        -0.0000     -0.0000     -0.0000      0.0000      0.0000
        13        -0.0000     -0.0000     -0.0000      0.0000      0.0000
        14        -0.0000     -0.0000     -0.0000      0.0000      0.0000
        15        -0.0000     -0.0000     -0.0000      0.0000      0.0000
        16        -0.0000     -0.0000     -0.0000      0.0000      0.0000
        17        -0.0000     -0.0000     -0.0000      0.0000      0.0000
        18         0.0000     -0.0000     -0.0000      0.0000      0.0000
        19        -0.0136     -0.0286     -0.3759      0.4181      0.2787
        20        -0.0001     -0.3878     -0.0302      0.4181      0.2787
        21        -0.4043     -0.0017     -0.0120      0.4181      0.2787
        22        -0.0000     -0.0000     -0.0000      0.0000      0.0000
        23        -0.0029     -0.0127     -0.0388      0.0544      0.0363
        24        -0.0268     -0.0255     -0.0021      0.0544      0.0363
        25        -0.0247     -0.0163     -0.0134      0.0544      0.0363
        26        -0.0000     -0.0000     -0.0000      0.0000      0.0000
        27        -0.0000     -0.0000     -0.0000      0.0000      0.0000
        28        -0.0000     -0.0000     -0.0000      0.0000      0.0000
        29        -0.0000     -0.0000     -0.0000      0.0000      0.0000
        30        -0.0000     -0.0000     -0.0000      0.0000      0.0000

 Excitation energies and oscillator strengths:
 
 Excited State   1:      Singlet-A     11.6654 eV  106.28 nm  f=0.1889  <S**2>=0.000
       5 ->  6         0.70654
 This state for optimization and/or second-order correction.
 Total Energy, E(TD-HF/TD-DFT) =  -40.0535141783    
 Copying the excited state density for this state as the 1-particle RhoCI density.
 
 Excited State   2:      Singlet-A     11.6654 eV  106.28 nm  f=0.1889  <S**2>=0.000
       4 ->  6         0.70590
 
 Excited State   3:      Singlet-A     11.6654 eV  106.28 nm  f=0.1889  <S**2>=0.000
       3 ->  6         0.70625
 
 Excited State   4:      Singlet-A     13.2456 eV   93.60 nm  f=0.0000  <S**2>=0.000
       4 ->  7         0.36935
       4 ->  8        -0.32889
       5 ->  7         0.32309
       5 ->  8         0.36138
       5 ->  9         0.11608
 
 Excited State   5:      Singlet-A     13.2456 eV   93.60 nm  f=0.0000  <S**2>=0.000
       3 ->  7        -0.40810
       3 ->  8         0.27806
       5 ->  9         0.47968
 
 Excited State   6:      Singlet-A     13.2456 eV   93.60 nm  f=0.0000  <S**2>=0.000
       3 ->  7         0.25580
       3 ->  8         0.39088
       3 ->  9         0.17330
       4 ->  7        -0.10880
       4 ->  8        -0.13627
       4 ->  9         0.46185
 
 Excited State   7:      Singlet-A     13.4293 eV   92.32 nm  f=0.0000  <S**2>=0.000
       3 ->  7         0.14251
       3 ->  8        -0.11695
       3 ->  9         0.10019
       4 ->  7        -0.31722
       4 ->  8         0.32566
       5 ->  7         0.18355
       5 ->  8         0.31834
       5 ->  9         0.33267
 
 Excited State   8:      Singlet-A     13.4293 eV   92.32 nm  f=0.0000  <S**2>=0.000
       3 ->  7         0.38929
       3 ->  8         0.24844
       3 ->  9        -0.27319
       4 ->  9        -0.35050
       5 ->  7         0.16058
       5 ->  8        -0.21963
       5 ->  9         0.11056
 
 Excited State   9:      Singlet-A     13.7193 eV   90.37 nm  f=0.4480  <S**2>=0.000
       4 ->  7         0.24790
       4 ->  8         0.38011
       4 ->  9         0.20547
       5 ->  7         0.41567
       5 ->  8        -0.24546
 
 Excited State  10:      Singlet-A     13.7193 eV   90.37 nm  f=0.4480  <S**2>=0.000
       3 ->  7        -0.25829
       3 ->  8         0.34665
       3 ->  9        -0.14645
       4 ->  7        -0.24567
       5 ->  7         0.20736
       5 ->  8         0.25253
       5 ->  9        -0.33166
 
 Excited State  11:      Singlet-A     13.7193 eV   90.37 nm  f=0.4480  <S**2>=0.000
       3 ->  8         0.23774
       3 ->  9         0.46230
       4 ->  7         0.23951
       4 ->  8         0.19133
       4 ->  9        -0.28803
       5 ->  7        -0.13370
       5 ->  8         0.10687
       5 ->  9        -0.10936
 
 Excited State  12:      Singlet-A     15.0279 eV   82.50 nm  f=0.0000  <S**2>=0.000
       2 ->  6        -0.10277
       3 ->  8        -0.10112
       3 ->  9         0.37003
       4 ->  7        -0.24623
       4 ->  8        -0.27623
       4 ->  9        -0.13950
       5 ->  7         0.29412
       5 ->  8        -0.26431
 
 Excited State  13:      Singlet-A     20.2542 eV   61.21 nm  f=0.0000  <S**2>=0.000
       3 -> 10        -0.14498
       4 -> 10         0.36113
       4 -> 11         0.30242
       5 -> 10        -0.31033
       5 -> 11         0.37382
       5 -> 12        -0.11091
 
 Excited State  14:      Singlet-A     20.2542 eV   61.21 nm  f=0.0000  <S**2>=0.000
       3 -> 10        -0.42720
       3 -> 11        -0.19978
       4 -> 10        -0.15654
       4 -> 12         0.12632
       5 -> 11         0.12058
       5 -> 12         0.46870
 
 Excited State  15:      Singlet-A     20.2543 eV   61.21 nm  f=0.0000  <S**2>=0.000
       3 -> 10        -0.18088
       3 -> 11         0.37889
       3 -> 12        -0.27007
       4 -> 10        -0.10323
       4 -> 11         0.24264
       4 -> 12         0.40478
       5 -> 12        -0.11163
 
 Excited State  16:      Singlet-A     20.3680 eV   60.87 nm  f=0.0000  <S**2>=0.000
       3 -> 10        -0.10000
       3 -> 11        -0.18276
       4 -> 10         0.35538
       4 -> 11         0.28627
       5 -> 10         0.36319
       5 -> 11        -0.33047
 
 Excited State  17:      Singlet-A     20.3681 eV   60.87 nm  f=0.0000  <S**2>=0.000
       3 -> 12         0.53253
       4 -> 10        -0.16911
       4 -> 11         0.24012
       4 -> 12         0.19432
       5 -> 10        -0.18943
       5 -> 11        -0.21322
 
 Excited State  18:      Singlet-A     20.4909 eV   60.51 nm  f=0.0000  <S**2>=0.000
       2 ->  6         0.65352
       3 -> 12         0.12289
       5 -> 10         0.11417
 
 Excited State  19:      Singlet-A     21.6749 eV   57.20 nm  f=0.3139  <S**2>=0.000
       2 ->  7        -0.22015
       2 ->  8        -0.11705
       2 ->  9         0.18634
       4 -> 10        -0.28640
       4 -> 11         0.28323
       5 -> 10         0.31609
       5 -> 11         0.29541
 
 Excited State  20:      Singlet-A     21.6750 eV   57.20 nm  f=0.3139  <S**2>=0.000
       2 ->  7         0.20730
       2 ->  8        -0.19878
       2 ->  9         0.12005
       3 -> 10         0.35806
       3 -> 11         0.18977
       4 -> 10         0.10101
       4 -> 11         0.14488
       5 -> 12         0.41663
 
 Excited State  21:      Singlet-A     21.6750 eV   57.20 nm  f=0.3139  <S**2>=0.000
       2 ->  8         0.20901
       2 ->  9         0.21854
       3 -> 10         0.22269
       3 -> 11        -0.36366
       3 -> 12        -0.12749
       4 -> 12         0.40518
 
 Excited State  22:      Singlet-A     22.0099 eV   56.33 nm  f=0.0000  <S**2>=0.000
       2 ->  6        -0.21827
       3 -> 11         0.18071
       3 -> 12         0.31009
       4 -> 10         0.21374
       4 -> 11        -0.23055
       4 -> 12         0.19269
       5 -> 10         0.28830
       5 -> 11         0.22394
 
 Excited State  23:      Singlet-A     22.3463 eV   55.48 nm  f=0.0352  <S**2>=0.000
       2 ->  7         0.62629
       4 -> 10        -0.13341
       5 -> 10         0.12020
       5 -> 12        -0.15710
 
 Excited State  24:      Singlet-A     22.3463 eV   55.48 nm  f=0.0352  <S**2>=0.000
       2 ->  8         0.62556
       3 -> 11         0.14127
       4 -> 11         0.13496
       4 -> 12        -0.12025
       5 -> 12         0.12788
 
 Excited State  25:      Singlet-A     22.3463 eV   55.48 nm  f=0.0352  <S**2>=0.000
       2 ->  9         0.62559
       3 -> 10        -0.17023
       3 -> 11         0.12255
       4 -> 12        -0.14187
       5 -> 11        -0.10615
 
 Excited State  26:      Singlet-A     26.6808 eV   46.47 nm  f=0.0000  <S**2>=0.000
       4 -> 13         0.38904
       4 -> 14        -0.29670
       5 -> 13         0.29969
       5 -> 14         0.39035
 
 Excited State  27:      Singlet-A     26.6809 eV   46.47 nm  f=0.0000  <S**2>=0.000
       3 -> 13        -0.44652
       3 -> 14         0.19649
       4 -> 15        -0.11577
       5 -> 15         0.47618
 
 Excited State  28:      Singlet-A     26.6809 eV   46.47 nm  f=0.0000  <S**2>=0.000
       3 -> 13         0.17938
       3 -> 14         0.43391
       3 -> 15         0.16471
       4 -> 14        -0.14712
       4 -> 15         0.45335
       5 -> 15         0.12404
 
 Excited State  29:      Singlet-A     26.7439 eV   46.36 nm  f=0.0000  <S**2>=0.000
       3 -> 13        -0.15135
       3 -> 14         0.10484
       3 -> 15        -0.10006
       4 -> 13         0.34067
       4 -> 14        -0.30023
       5 -> 13        -0.16054
       5 -> 14        -0.33337
       5 -> 15        -0.32918
 
 Excited State  30:      Singlet-A     26.7439 eV   46.36 nm  f=0.0000  <S**2>=0.000
       3 -> 13         0.36766
       3 -> 14         0.27466
       3 -> 15        -0.27686
       4 -> 15        -0.34999
       5 -> 13         0.17692
       5 -> 14        -0.20603
       5 -> 15         0.11109
 SavETr:  write IOETrn=   770 NScale= 10 NData=  16 NLR=1 NState=   30 LETran=     550.

 **********************************************************************

            Population analysis using the SCF density.

 **********************************************************************

 Orbital symmetries:
       Occupied  (A) (A) (A) (A) (A)
       Virtual   (A) (A) (A) (A) (A) (A) (A) (A) (A) (A) (A) (A)
                 (A) (A) (A) (A) (A) (A) (A) (A) (A) (A) (A) (A)
                 (A) (A) (A) (A) (A)
 The electronic state is 1-A.
 Alpha  occ. eigenvalues --  -10.24295  -0.77111  -0.45430  -0.45430  -0.45430
 Alpha virt. eigenvalues --    0.11944   0.19232   0.19232   0.19232   0.47077
 Alpha virt. eigenvalues --    0.47077   0.47077   0.71598   0.71598   0.71598
 Alpha virt. eigenvalues --    0.75515   0.96944   0.96944   1.10295   1.49393
 Alpha virt. eigenvalues --    1.49393   1.49393   1.68918   1.68918   1.68919
 Alpha virt. eigenvalues --    2.00015   2.00016   2.00016   2.31957   2.31958
 Alpha virt. eigenvalues --    2.48866   2.51567   2.51567   2.51568
          Condensed to atoms (all electrons):
               1          2          3          4          5
     1  C    4.499730   0.408337   0.408337   0.408338   0.408337
     2  H    0.408337   0.626029  -0.022546  -0.022545  -0.022545
     3  H    0.408337  -0.022546   0.626029  -0.022545  -0.022545
     4  H    0.408338  -0.022545  -0.022545   0.626029  -0.022546
     5  H    0.408337  -0.022545  -0.022545  -0.022546   0.626029
 Mulliken charges:
               1
     1  C   -0.133080
     2  H    0.033270
     3  H    0.033270
     4  H    0.033270
     5  H    0.033270
 Sum of Mulliken charges =  -0.00000
 Mulliken charges with hydrogens summed into heavy atoms:
               1
     1  C   -0.000000
 Electronic spatial extent (au):  <R**2>=             35.6339
 Charge=             -0.0000 electrons
 Dipole moment (field-independent basis, Debye):
    X=              0.0000    Y=             -0.0000    Z=             -0.0000  Tot=              0.0000
 Quadrupole moment (field-independent basis, Debye-Ang):
   XX=             -8.3366   YY=             -8.3366   ZZ=             -8.3366
   XY=             -0.0000   XZ=              0.0000   YZ=              0.0000
 Traceless Quadrupole moment (field-independent basis, Debye-Ang):
   XX=             -0.0000   YY=             -0.0000   ZZ=              0.0000
   XY=             -0.0000   XZ=              0.0000   YZ=              0.0000
 Octapole moment (field-independent basis, Debye-Ang**2):
  XXX=             -0.1764  YYY=              0.5441  ZZZ=              0.2971  XYY=              0.2372
  XXY=             -0.1776  XXZ=             -0.5022  XZZ=             -0.0607  YZZ=             -0.3665
  YYZ=              0.2050  XYZ=              0.1656
 Hexadecapole moment (field-independent basis, Debye-Ang**3):
 XXXX=            -15.7094 YYYY=            -15.5547 ZZZZ=            -15.8819 XXXY=             -0.1828
 XXXZ=              0.1745 YYYX=              0.2352 YYYZ=              0.1473 ZZZX=             -0.0939
 ZZZY=             -0.3778 XXYY=             -5.4479 XXZZ=             -5.1208 YYZZ=             -5.2756
 XXYZ=              0.2305 YYXZ=             -0.0807 ZZXY=             -0.0524
 N-N= 1.340832515069D+01 E-N=-1.198320377416D+02  KE= 4.007659071964D+01
 1\1\GINC-NODE659\SP\RCAM-B3LYP TD-FC\CC-pVDZ\C1H4\MAGBUK\07-Mar-2022\0
 \\# td=(nstates=30) cam-b3lyp/cc-pVDZ\\Methane.xyz\\0,1\C,0,1.01825,0.
 09315,0.03147\H,0,2.11045,0.09315,0.03147\H,0,0.65419,-0.6028,0.79043\
 H,0,0.65418,-0.21615,-0.95071\H,0,0.65418,1.0984,0.2547\\Version=ES64L
 -G16RevA.03\State=1-A\HF=-40.482208\RMSD=1.160e-09\PG=C01 [X(C1H4)]\\@


 HE THAT IS UNAWARE OF HIS IGNORANCE WILL BE MISLED BY HIS KNOWLEDGE.

                                        -- WHATLEY
 Job cpu time:       0 days  0 hours  0 minutes 23.3 seconds.
 Elapsed time:       0 days  0 hours  0 minutes 23.3 seconds.
 File lengths (MBytes):  RWF=     18 Int=      0 D2E=      0 Chk=      3 Scr=      1
 Normal termination of Gaussian 16 at Mon Mar  7 19:37:35 2022.
