 Entering Gaussian System, Link 0=/opt/gaussian/g16/sse4/g16/g16
 Initial command:
 /opt/gaussian/g16/sse4/g16/l1.exe "/scratch/1554103/Gau-11788.inp" -scrdir="/scratch/1554103/"
 Entering Link 1 = /opt/gaussian/g16/sse4/g16/l1.exe PID=     11798.
  
 Copyright (c) 1988,1990,1992,1993,1995,1998,2003,2009,2016,
            Gaussian, Inc.  All Rights Reserved.
  
 This is part of the Gaussian(R) 16 program.  It is based on
 the Gaussian(R) 09 system (copyright 2009, Gaussian, Inc.),
 the Gaussian(R) 03 system (copyright 2003, Gaussian, Inc.),
 the Gaussian(R) 98 system (copyright 1998, Gaussian, Inc.),
 the Gaussian(R) 94 system (copyright 1995, Gaussian, Inc.),
 the Gaussian 92(TM) system (copyright 1992, Gaussian, Inc.),
 the Gaussian 90(TM) system (copyright 1990, Gaussian, Inc.),
 the Gaussian 88(TM) system (copyright 1988, Gaussian, Inc.),
 the Gaussian 86(TM) system (copyright 1986, Carnegie Mellon
 University), and the Gaussian 82(TM) system (copyright 1983,
 Carnegie Mellon University). Gaussian is a federally registered
 trademark of Gaussian, Inc.
  
 This software contains proprietary and confidential information,
 including trade secrets, belonging to Gaussian, Inc.
  
 This software is provided under written license and may be
 used, copied, transmitted, or stored only in accord with that
 written license.
  
 The following legend is applicable only to US Government
 contracts under FAR:
  
                    RESTRICTED RIGHTS LEGEND
  
 Use, reproduction and disclosure by the US Government is
 subject to restrictions as set forth in subparagraphs (a)
 and (c) of the Commercial Computer Software - Restricted
 Rights clause in FAR 52.227-19.
  
 Gaussian, Inc.
 340 Quinnipiac St., Bldg. 40, Wallingford CT 06492
  
  
 ---------------------------------------------------------------
 Warning -- This program may not be used in any manner that
 competes with the business of Gaussian, Inc. or will provide
 assistance to any competitor of Gaussian, Inc.  The licensee
 of this program is prohibited from giving any competitor of
 Gaussian, Inc. access to this program.  By using this program,
 the user acknowledges that Gaussian, Inc. is engaged in the
 business of creating and licensing software in the field of
 computational chemistry and represents and warrants to the
 licensee that it is not a competitor of Gaussian, Inc. and that
 it will not use this program in any manner prohibited above.
 ---------------------------------------------------------------
  

 Cite this work as:
 Gaussian 16, Revision A.03,
 M. J. Frisch, G. W. Trucks, H. B. Schlegel, G. E. Scuseria, 
 M. A. Robb, J. R. Cheeseman, G. Scalmani, V. Barone, 
 G. A. Petersson, H. Nakatsuji, X. Li, M. Caricato, A. V. Marenich, 
 J. Bloino, B. G. Janesko, R. Gomperts, B. Mennucci, H. P. Hratchian, 
 J. V. Ortiz, A. F. Izmaylov, J. L. Sonnenberg, D. Williams-Young, 
 F. Ding, F. Lipparini, F. Egidi, J. Goings, B. Peng, A. Petrone, 
 T. Henderson, D. Ranasinghe, V. G. Zakrzewski, J. Gao, N. Rega, 
 G. Zheng, W. Liang, M. Hada, M. Ehara, K. Toyota, R. Fukuda, 
 J. Hasegawa, M. Ishida, T. Nakajima, Y. Honda, O. Kitao, H. Nakai, 
 T. Vreven, K. Throssell, J. A. Montgomery, Jr., J. E. Peralta, 
 F. Ogliaro, M. J. Bearpark, J. J. Heyd, E. N. Brothers, K. N. Kudin, 
 V. N. Staroverov, T. A. Keith, R. Kobayashi, J. Normand, 
 K. Raghavachari, A. P. Rendell, J. C. Burant, S. S. Iyengar, 
 J. Tomasi, M. Cossi, J. M. Millam, M. Klene, C. Adamo, R. Cammi, 
 J. W. Ochterski, R. L. Martin, K. Morokuma, O. Farkas, 
 J. B. Foresman, and D. J. Fox, Gaussian, Inc., Wallingford CT, 2016.
 
 ******************************************
 Gaussian 16:  ES64L-G16RevA.03 25-Dec-2016
                 7-Mar-2022 
 ******************************************
 %chk=Ethanol.chk
 %mem=4GB
 %nprocshared=1
 Will use up to    1 processors via shared memory.
 -----------------------------------
 # td=(nstates=30) cam-b3lyp/cc-pVDZ
 -----------------------------------
 1/38=1,172=1/1;
 2/12=2,17=6,18=5,40=1/2;
 3/5=16,11=9,25=1,30=1,74=-40/1,2,3,8;
 4//1;
 5/5=2,38=5/2;
 8/6=1,10=1,108=30/1;
 9/41=30,42=1,70=2/14;
 6/7=2,8=2,9=2,10=2/1;
 99/5=1,9=1/99;
 -----------
 Ethanol.xyz
 -----------
 Symbolic Z-matrix:
 Charge =  0 Multiplicity = 1
 C                     1.0111    0.07708  -0.05953 
 C                     2.52569   0.07985  -0.0664 
 O                     3.00581   1.24365  -0.72365 
 H                     0.62516  -0.80571   0.4578 
 H                     0.61937   0.08556  -1.08199 
 H                     0.62645   0.97441   0.4362 
 H                     2.91751  -0.80185  -0.58251 
 H                     2.91316   0.08142   0.95654 
 H                     2.66453   1.22802  -1.63407 
 
                          Input orientation:                          
 ---------------------------------------------------------------------
 Center     Atomic      Atomic             Coordinates (Angstroms)
 Number     Number       Type             X           Y           Z
 ---------------------------------------------------------------------
      1          6           0        1.011100    0.077080   -0.059530
      2          6           0        2.525690    0.079850   -0.066400
      3          8           0        3.005810    1.243650   -0.723650
      4          1           0        0.625160   -0.805710    0.457800
      5          1           0        0.619370    0.085560   -1.081990
      6          1           0        0.626450    0.974410    0.436200
      7          1           0        2.917510   -0.801850   -0.582510
      8          1           0        2.913160    0.081420    0.956540
      9          1           0        2.664530    1.228020   -1.634070
 ---------------------------------------------------------------------
                    Distance matrix (angstroms):
                    1          2          3          4          5
     1  C    0.000000
     2  C    1.514608   0.000000
     3  O    2.404331   1.420184   0.000000
     4  H    1.093571   2.161253   3.356068   0.000000
     5  H    1.094965   2.159980   2.676691   1.779143   0.000000
     6  H    1.094945   2.158693   2.660657   1.780252   1.759263
     7  H    2.163429   1.094206   2.052264   2.517365   2.513648
     8  H    2.156444   1.093865   2.045092   2.504134   3.068728
     9  H    2.556887   1.948117   0.972410   3.559636   2.406800
                    6          7          8          9
     6  H    0.000000
     7  H    3.072755   0.000000
     8  H    2.509428   1.774503   0.000000
     9  H    2.916180   2.300033   2.843900   0.000000
 Stoichiometry    C2H6O
 Framework group  C1[X(C2H6O)]
 Deg. of freedom    21
 Full point group                 C1      NOp   1
 Largest Abelian subgroup         C1      NOp   1
 Largest concise Abelian subgroup C1      NOp   1
                         Standard orientation:                         
 ---------------------------------------------------------------------
 Center     Atomic      Atomic             Coordinates (Angstroms)
 Number     Number       Type             X           Y           Z
 ---------------------------------------------------------------------
      1          6           0       -1.189013   -0.242578   -0.020188
      2          6           0        0.082495    0.577704    0.046466
      3          8           0        1.213414   -0.266431   -0.112846
      4          1           0       -2.070742    0.395723    0.084802
      5          1           0       -1.204425   -0.997807    0.772491
      6          1           0       -1.251755   -0.779289   -0.972506
      7          1           0        0.164518    1.097414    1.005873
      8          1           0        0.098776    1.324289   -0.752839
      9          1           0        1.195425   -0.919638    0.607278
 ---------------------------------------------------------------------
 Rotational constants (GHZ):          33.3036258           9.5408688           8.3219240
 Standard basis: CC-pVDZ (5D, 7F)
 There are    75 symmetry adapted cartesian basis functions of A   symmetry.
 There are    72 symmetry adapted basis functions of A   symmetry.
    72 basis functions,   141 primitive gaussians,    75 cartesian basis functions
    13 alpha electrons       13 beta electrons
       nuclear repulsion energy        82.0240653680 Hartrees.
 NAtoms=    9 NActive=    9 NUniq=    9 SFac= 1.00D+00 NAtFMM=   60 NAOKFM=F Big=F
 Integral buffers will be    131072 words long.
 Raffenetti 1 integral format.
 Two-electron integral symmetry is turned on.
 One-electron integrals computed using PRISM.
 NBasis=    72 RedAO= T EigKep=  6.42D-03  NBF=    72
 NBsUse=    72 1.00D-06 EigRej= -1.00D+00 NBFU=    72
 ExpMin= 1.22D-01 ExpMax= 1.17D+04 ExpMxC= 4.01D+02 IAcc=3 IRadAn=         5 AccDes= 0.00D+00
 Harris functional with IExCor=20419 and IRadAn=       5 diagonalized for initial guess.
 HarFok:  IExCor=20419 AccDes= 0.00D+00 IRadAn=         5 IDoV= 1 UseB2=F ITyADJ=14
 ICtDFT=  3500011 ScaDFX=  1.000000  1.000000  1.000000  1.000000
 FoFCou: FMM=F IPFlag=           0 FMFlag=      100000 FMFlg1=           0
         NFxFlg=           0 DoJE=T BraDBF=F KetDBF=T FulRan=T
         wScrn=  0.000000 ICntrl=       500 IOpCl=  0 I1Cent=   200000004 NGrid=           0
         NMat0=    1 NMatS0=      1 NMatT0=    0 NMatD0=    1 NMtDS0=    0 NMtDT0=    0
 Petite list used in FoFCou.
 Keep R1 ints in memory in canonical form, NReq=7806352.
 Requested convergence on RMS density matrix=1.00D-08 within 128 cycles.
 Requested convergence on MAX density matrix=1.00D-06.
 Requested convergence on             energy=1.00D-06.
 No special actions if energy rises.
 Integral accuracy reduced to 1.0D-05 until final iterations.
 Initial convergence to 1.0D-05 achieved.  Increase integral accuracy.
 SCF Done:  E(RCAM-B3LYP) =  -154.963189746     A.U. after   12 cycles
            NFock= 12  Conv=0.37D-08     -V/T= 2.0065
 DoSCS=F DFT=T ScalE2(SS,OS)=  1.000000  1.000000
 ExpMin= 1.22D-01 ExpMax= 1.17D+04 ExpMxC= 4.01D+02 IAcc=3 IRadAn=         5 AccDes= 0.00D+00
 HarFok:  IExCor=  205 AccDes= 0.00D+00 IRadAn=         5 IDoV=-2 UseB2=F ITyADJ=14
 ICtDFT= 12500011 ScaDFX=  1.000000  1.000000  1.000000  1.000000
 Range of M.O.s used for correlation:     4    72
 NBasis=    72 NAE=    13 NBE=    13 NFC=     3 NFV=     0
 NROrb=     69 NOA=    10 NOB=    10 NVA=    59 NVB=    59
 Keep R1, R2, and R3 ints in memory in canonical form, NReq=27686755.
 Orbital symmetries:
       Occupied  (A) (A) (A) (A) (A) (A) (A) (A) (A) (A) (A) (A)
                 (A)
       Virtual   (A) (A) (A) (A) (A) (A) (A) (A) (A) (A) (A) (A)
                 (A) (A) (A) (A) (A) (A) (A) (A) (A) (A) (A) (A)
                 (A) (A) (A) (A) (A) (A) (A) (A) (A) (A) (A) (A)
                 (A) (A) (A) (A) (A) (A) (A) (A) (A) (A) (A) (A)
                 (A) (A) (A) (A) (A) (A) (A) (A) (A) (A) (A)
   120 initial guesses have been made.
 Convergence on wavefunction:    0.001000000000000
 Iteration     1 Dimension   120 NMult     0 NNew    120
 CISAX will form   120 AO SS matrices at one time.
 New state      6 was old state      7
 New state      7 was old state      6
 New state     13 was old state     18
 New state     15 was old state     13
 New state     16 was old state     15
 New state     18 was old state     16
 New state     22 was old state     24
 New state     23 was old state     22
 New state     24 was old state     23
 New state     25 was old state     29
 New state     26 was old state     25
 New state     27 was old state     26
 New state     28 was old state     27
 New state     29 was old state     30
 New state     30 was old state     31
 Iteration     2 Dimension   180 NMult   120 NNew     60
 Iteration     3 Dimension   240 NMult   180 NNew     60
 Iteration     4 Dimension   250 NMult   240 NNew     10
 ***********************************************************************
 Excited states from <AA,BB:AA,BB> singles matrix:
 ***********************************************************************
 
 Ground to excited state transition densities written to RWF  633
 Ground to excited state transition electric dipole moments (Au):
       state          X           Y           Z        Dip. S.      Osc.
         1         0.1502      0.0114     -0.0116      0.0228      0.0041
         2         0.1527     -0.1756     -0.1099      0.0662      0.0146
         3        -0.1802     -0.1320      0.1233      0.0651      0.0146
         4         0.2280      0.1919      0.1917      0.1256      0.0298
         5         0.1195      0.3640      0.4382      0.3388      0.0825
         6         0.0254      0.1846     -0.1193      0.0489      0.0124
         7        -0.3673      0.1957     -0.0786      0.1794      0.0470
         8         0.0749     -0.4549      0.3582      0.3409      0.0904
         9        -0.1811     -0.0495      0.0686      0.0400      0.0108
        10        -0.3458      0.0062      0.4151      0.2920      0.0790
        11        -0.2791      0.3978     -0.3493      0.3582      0.0985
        12         0.1074      0.3889      0.2868      0.2450      0.0686
        13        -0.0641      0.3923      0.1826      0.1914      0.0538
        14        -0.1564      0.2394     -0.0180      0.0821      0.0238
        15         0.2405     -0.1986     -0.1002      0.1073      0.0315
        16         0.2761      0.2998      0.5106      0.4268      0.1282
        17        -0.1658     -0.0210      0.5923      0.3788      0.1148
        18         0.2097      0.5034     -0.4114      0.4666      0.1423
        19        -0.1146     -0.4725      0.0056      0.2364      0.0728
        20         0.2962      0.2157      0.1657      0.1617      0.0503
        21         0.2332      0.3765     -0.3711      0.3339      0.1042
        22         0.1428     -0.2148      0.1522      0.0897      0.0282
        23        -0.5678      0.0508      0.0967      0.3343      0.1075
        24         0.1194      0.7017      0.4012      0.6676      0.2150
        25         0.4625      0.1394      0.0966      0.2427      0.0788
        26        -0.3497      0.0067      0.1951      0.1604      0.0523
        27         0.7868     -0.0570      0.0174      0.6227      0.2051
        28        -0.1621      0.1572     -0.3138      0.1494      0.0500
        29        -0.5123      0.2498     -0.2193      0.3730      0.1252
        30         0.0772      0.0129     -0.0762      0.0119      0.0041
 Ground to excited state transition velocity dipole moments (Au):
       state          X           Y           Z        Dip. S.      Osc.
         1        -0.0790     -0.0445     -0.0383      0.0097      0.0238
         2        -0.0251      0.0769      0.0530      0.0094      0.0189
         3         0.0833      0.0551     -0.0838      0.0170      0.0336
         4        -0.0551     -0.0643     -0.0583      0.0106      0.0198
         5        -0.0320     -0.1523     -0.1753      0.0549      0.1003
         6        -0.0174     -0.0744      0.0735      0.0112      0.0197
         7         0.1281     -0.0725      0.0381      0.0231      0.0392
         8        -0.0352      0.1926     -0.1524      0.0616      0.1031
         9         0.0697      0.0128     -0.0315      0.0060      0.0099
        10         0.1343     -0.0037     -0.1703      0.0471      0.0773
        11         0.1225     -0.1663      0.1414      0.0627      0.1012
        12        -0.0292     -0.1602     -0.1388      0.0458      0.0727
        13         0.0474     -0.1733     -0.0949      0.0413      0.0652
        14         0.0502     -0.1032     -0.0105      0.0133      0.0203
        15        -0.1159      0.0952      0.0476      0.0248      0.0375
        16        -0.1198     -0.1528     -0.2462      0.0983      0.1455
        17         0.0702      0.0043     -0.3046      0.0977      0.1433
        18        -0.1095     -0.2503      0.2007      0.1149      0.1675
        19         0.0359      0.2277     -0.0034      0.0531      0.0767
        20        -0.1373     -0.1024     -0.0946      0.0383      0.0547
        21        -0.1184     -0.1920      0.1864      0.0856      0.1220
        22        -0.0813      0.1063     -0.0778      0.0240      0.0338
        23         0.2788     -0.0275     -0.0433      0.0804      0.1111
        24        -0.0659     -0.3455     -0.1973      0.1626      0.2245
        25        -0.2335     -0.0607     -0.0525      0.0610      0.0835
        26         0.1639     -0.0119     -0.0939      0.0358      0.0488
        27        -0.3926      0.0341     -0.0005      0.1553      0.2095
        28         0.0750     -0.0821      0.1707      0.0415      0.0552
        29         0.2590     -0.1396      0.1180      0.1005      0.1331
        30        -0.0438     -0.0021      0.0453      0.0040      0.0051
 Ground to excited state transition magnetic dipole moments (Au):
       state          X           Y           Z
         1         0.4167      0.2019     -0.5496
         2         0.3312     -0.0374      0.0699
         3         0.6448      0.3748      0.5748
         4        -0.0893     -0.2447      0.2994
         5        -0.0742     -0.0804     -0.0702
         6         0.5685     -1.0132     -0.1611
         7         0.0707      0.1874      0.2173
         8         0.2518     -0.3738     -0.6660
         9        -0.0148     -0.4946     -0.0249
        10        -0.1158     -0.4940      0.2447
        11         0.2716      0.2395      0.4101
        12         0.1444      0.2910     -0.0754
        13         0.0044     -0.0671      0.2714
        14        -0.0351     -0.5114     -0.3660
        15         0.5373     -0.0784     -0.5743
        16         0.3613     -0.5310      0.8995
        17        -0.1602     -0.3025     -0.2364
        18         0.1091      0.4127      0.0028
        19        -0.1965      0.3212     -0.3652
        20         0.2414      0.2788      0.4448
        21         0.3208      0.2653      0.8612
        22         0.1975     -0.2545      0.3474
        23         0.3207     -0.3756     -0.1897
        24        -0.1484     -0.5027     -0.0250
        25        -0.4454     -0.0214      0.8712
        26         0.0240      0.3900     -0.2968
        27        -0.1476     -0.4087     -0.4475
        28         0.0436      0.3881     -0.2023
        29        -0.1921     -0.6518     -0.3983
        30        -0.0392      0.0958     -0.2334
 Ground to excited state transition velocity quadrupole moments (Au):
       state          XX          YY          ZZ          XY          XZ          YZ
         1        -0.3642      0.2894      0.0361     -0.1161     -0.2296      0.1757
         2         0.1921      0.0356      0.2420      0.0440      0.0734      0.3256
         3         0.1464     -0.2120     -0.0536      0.1533     -0.2024      0.4247
         4         0.3397     -0.0688     -0.0621      0.1142      0.0467     -0.0972
         5         0.2315     -0.2013     -0.3040     -0.0621     -0.0350     -0.3684
         6        -0.2410     -0.2926      0.0874     -0.0067      0.5491      0.5448
         7        -0.7041      0.1311      0.1124      0.2389     -0.0917     -0.0064
         8         0.1726     -0.1285     -0.0630     -0.1956      0.3313      0.1685
         9         0.0281     -0.0365     -0.2227     -0.0412      0.0047     -0.3627
        10        -0.7677      0.3803      0.3161      0.2415      0.4073     -0.0897
        11        -0.2067      0.0536      0.3196      0.3856      0.0438      0.0398
        12         0.5234     -0.5567     -0.2305     -0.0184     -0.0211     -0.0373
        13         0.1307     -0.1171     -0.1658      0.0312      0.0174      0.0770
        14         0.3841     -0.1072      0.0014     -0.2344      0.2353      0.2380
        15         1.0201     -0.3521     -0.1338     -0.5899      0.1926      0.4581
        16        -0.3102      0.1304      0.3309      0.5508      0.4150      0.4349
        17        -0.0370     -0.0815     -0.1425     -0.3438      0.4789     -0.0526
        18         0.4944     -0.4348     -0.4066     -0.2209     -0.2551     -0.0959
        19         0.3531     -0.3926     -0.2768     -0.2175     -0.1346      0.0419
        20         0.2627     -0.2039     -0.0017      0.3422     -0.0040      0.3113
        21        -0.3875     -0.0088      0.1750      0.6414     -0.1588     -0.0869
        22         0.3361      0.0456      0.1821     -0.0244      0.1377      0.1125
        23        -0.8447     -0.0333      0.0103      0.0780      0.3214      0.2834
        24         0.1046     -0.1251      0.0972      0.2112      0.5427      0.0645
        25        -0.4040     -0.0555      0.0946      0.7470     -0.2629      0.0324
        26        -0.3132     -0.1218     -0.0427     -0.0473      0.1645     -0.0902
        27         1.3048     -0.0542      0.1726     -0.3131      0.0504      0.2817
        28        -0.0002      0.1299     -0.2953     -0.2815     -0.3842     -0.5351
        29        -0.4824     -0.6862     -0.3170     -0.2362      0.5465      0.7783
        30        -0.1013     -0.5481     -0.6120     -0.1547     -0.5462     -0.5557
 <0|del|b> * <b|rxdel|0> + <0|del|b> * <b|delr+rdel|0>
 Rotatory Strengths (R) in cgs (10**-40 erg-esu-cm/Gauss)
       state          XX          YY          ZZ    R(velocity)    E-M Angle
         1         8.2569    -39.3600    -23.2160    -18.1064      107.13
         2        -2.6565    -16.1701      2.8121     -5.3382      103.13
         3       -30.6859     56.3904     29.1795     18.2947       77.69
         4        -5.3346     -0.5188     12.2293      2.1253       85.49
         5        29.1639     15.0734      7.9018     17.3797       27.94
         6        96.7726    -28.6316     31.7751     33.3054       64.44
         7        -2.5690      6.6741      2.6306      2.2452       85.22
         8        -4.0385     50.5496     -9.8780     12.2110       84.07
         9        -3.7860    -23.4645     15.7073     -3.8477       99.89
        10       -69.2106    -24.5458     -2.7714    -32.1759      116.95
        11        68.5421     35.6553    -16.0478     29.3832       67.94
        12       -31.1282      4.0222    -40.8715    -22.6592      124.46
        13       -11.7780    -15.8621      4.3378     -7.7674      104.17
        14        67.7159      9.3904     12.0216     29.7093       40.90
        15       -65.2415    -92.0188      1.3651    -51.9650      141.31
        16      -166.7212   -142.2311     20.8364    -96.0386      121.98
        17       134.8713    -37.0666     -5.2889     30.8386       62.79
        18      -163.0605     33.5882    -47.8411    -59.1044      142.42
        19        80.9376     -3.8579     25.9625     34.3474       56.16
        20       -78.3528    -64.8618    -14.0380    -52.4175      156.61
        21       150.0048     10.0248    -51.9088     36.0403       75.18
        22       -50.0424    -40.5180    -14.4699    -35.0101      163.00
        23        17.6159    132.0215      8.7236     52.7870       43.95
        24       237.5142     38.1436      0.1775     91.9451       27.10
        25       -72.3601     65.2944     93.5711     28.8351       75.73
        26        21.4136      9.0962      8.7518     13.0872       72.99
        27       -10.9413    -37.6284    111.8764     21.1022       79.63
        28      -102.9787    -16.4449     30.3674    -29.6854      134.79
        29        64.8924     93.2086   -166.2194     -2.7061       91.33
        30       -12.9948     15.3901    -14.8238     -4.1428      124.30
 1/2[<0|r|b>*<b|rxdel|0> + (<0|rxdel|b>*<b|r|0>)*]
 Rotatory Strengths (R) in cgs (10**-40 erg-esu-cm/Gauss)
       state          XX          YY          ZZ     R(length)
         1       -44.2543     -1.6249     -4.4960    -16.7917
         2       -35.7691     -4.6483      5.4320    -11.6618
         3        82.1852     34.9723    -50.1245     22.3443
         4        14.3997     33.2109    -40.5898      2.3403
         5         6.2742     20.6875     21.7608     16.2408
         6       -10.2147    132.2284    -13.5899     36.1413
         7        18.3548    -25.9465     12.0869      1.4984
         8       -13.3348   -120.2626    168.7235     11.7087
         9        -1.8991    -17.3266      1.2081     -6.0059
        10       -28.3314      2.1701    -71.8453    -32.6689
        11        53.6102    -67.3864    101.3088     29.1776
        12       -10.9714    -80.0375     15.2860    -25.2410
        13         0.2008     18.6226    -35.0430     -5.4065
        14        -3.8785     86.5843     -4.6555     26.0168
        15       -91.3811    -11.0027    -40.6917    -47.6918
        16       -70.5244    112.5931   -324.7569    -94.2294
        17       -18.7820     -4.4963     99.0253     25.2490
        18       -16.1730   -146.9092      0.8029    -54.0931
        19       -15.9273    107.3003      1.4515     30.9415
        20       -50.5576    -42.5142    -52.1053    -48.3924
        21       -52.9032    -70.6441    226.0033     34.1520
        22       -19.9345    -38.6603    -37.3976    -31.9974
        23       128.7904     13.4948     12.9700     51.7517
        24        12.5385    249.4802      7.0788     89.6992
        25       145.6674      2.1127    -59.5066     29.4245
        26         5.9454     -1.8569     40.9503     15.0129
        27        82.1205    -16.4814      5.5067     23.7153
        28         4.9999    -43.1591    -44.8769    -27.6787
        29       -69.5986    115.1468    -61.7635     -5.4051
        30         2.1373     -0.8708    -12.5692     -3.7675
  1/2[<0|del|b>*<b|r|0> + (<0|r|b>*<b|del|0>)*] (Au)
       state          X           Y           Z        Dip. S.   Osc.(frdel)
         1        -0.0119     -0.0005      0.0004      0.0119      0.0079
         2        -0.0038     -0.0135     -0.0058      0.0232      0.0154
         3        -0.0150     -0.0073     -0.0103      0.0326      0.0217
         4        -0.0126     -0.0123     -0.0112      0.0361      0.0241
         5        -0.0038     -0.0554     -0.0768      0.1361      0.0907
         6        -0.0004     -0.0137     -0.0088      0.0229      0.0153
         7        -0.0471     -0.0142     -0.0030      0.0642      0.0428
         8        -0.0026     -0.0876     -0.0546      0.1449      0.0966
         9        -0.0126     -0.0006     -0.0022      0.0154      0.0103
        10        -0.0464     -0.0000     -0.0707      0.1172      0.0781
        11        -0.0342     -0.0662     -0.0494      0.1498      0.0998
        12        -0.0031     -0.0623     -0.0398      0.1053      0.0702
        13        -0.0030     -0.0680     -0.0173      0.0883      0.0589
        14        -0.0078     -0.0247      0.0002      0.0324      0.0216
        15        -0.0279     -0.0189     -0.0048      0.0515      0.0344
        16        -0.0331     -0.0458     -0.1257      0.2046      0.1364
        17        -0.0116     -0.0001     -0.1804      0.1922      0.1281
        18        -0.0230     -0.1260     -0.0826      0.2315      0.1543
        19        -0.0041     -0.1076     -0.0000      0.1117      0.0745
        20        -0.0407     -0.0221     -0.0157      0.0784      0.0523
        21        -0.0276     -0.0723     -0.0692      0.1691      0.1127
        22        -0.0116     -0.0228     -0.0118      0.0463      0.0309
        23        -0.1583     -0.0014     -0.0042      0.1639      0.1093
        24        -0.0079     -0.2425     -0.0791      0.3295      0.2196
        25        -0.1080     -0.0085     -0.0051      0.1215      0.0810
        26        -0.0573     -0.0001     -0.0183      0.0757      0.0505
        27        -0.3089     -0.0019     -0.0000      0.3108      0.2072
        28        -0.0122     -0.0129     -0.0536      0.0786      0.0524
        29        -0.1327     -0.0349     -0.0259      0.1934      0.1290
        30        -0.0034     -0.0000     -0.0035      0.0069      0.0046

 Excitation energies and oscillator strengths:
 
 Excited State   1:      Singlet-A      7.3776 eV  168.05 nm  f=0.0041  <S**2>=0.000
      13 -> 14         0.65736
      13 -> 15        -0.22124
 This state for optimization and/or second-order correction.
 Total Energy, E(TD-HF/TD-DFT) =  -154.692068069    
 Copying the excited state density for this state as the 1-particle RhoCI density.
 
 Excited State   2:      Singlet-A      8.9891 eV  137.93 nm  f=0.0146  <S**2>=0.000
      12 -> 14         0.11593
      13 -> 14         0.21216
      13 -> 15         0.63498
      13 -> 16        -0.11809
      13 -> 18         0.12231
 
 Excited State   3:      Singlet-A      9.1744 eV  135.14 nm  f=0.0146  <S**2>=0.000
      12 -> 14         0.66495
      12 -> 15        -0.12171
      13 -> 15        -0.10452
 
 Excited State   4:      Singlet-A      9.6734 eV  128.17 nm  f=0.0298  <S**2>=0.000
      13 -> 14         0.10446
      13 -> 16         0.65715
      13 -> 17        -0.14438
      13 -> 20         0.13353
 
 Excited State   5:      Singlet-A      9.9355 eV  124.79 nm  f=0.0825  <S**2>=0.000
      13 -> 15         0.10361
      13 -> 16         0.16371
      13 -> 17         0.64935
      13 -> 18        -0.11009
      13 -> 19         0.11793
 
 Excited State   6:      Singlet-A     10.3340 eV  119.98 nm  f=0.0124  <S**2>=0.000
      11 -> 14         0.35439
      12 -> 14         0.15447
      12 -> 15         0.55998
 
 Excited State   7:      Singlet-A     10.6898 eV  115.98 nm  f=0.0470  <S**2>=0.000
      10 -> 14        -0.12028
      11 -> 14        -0.17704
      13 -> 17         0.12680
      13 -> 18         0.60662
      13 -> 20         0.16571
 
 Excited State   8:      Singlet-A     10.8303 eV  114.48 nm  f=0.0904  <S**2>=0.000
      11 -> 14         0.54929
      12 -> 15        -0.35838
      13 -> 18         0.19544
 
 Excited State   9:      Singlet-A     10.9984 eV  112.73 nm  f=0.0108  <S**2>=0.000
      13 -> 19         0.66879
 
 Excited State  10:      Singlet-A     11.0418 eV  112.29 nm  f=0.0790  <S**2>=0.000
      10 -> 14         0.42385
      11 -> 14        -0.10372
      12 -> 16         0.49391
      12 -> 17        -0.12596
      13 -> 19        -0.11906
 
 Excited State  11:      Singlet-A     11.2280 eV  110.42 nm  f=0.0985  <S**2>=0.000
       9 -> 14         0.10452
      10 -> 14         0.44859
      12 -> 16        -0.40521
      13 -> 18         0.13583
      13 -> 20        -0.24991
 
 Excited State  12:      Singlet-A     11.4331 eV  108.44 nm  f=0.0686  <S**2>=0.000
      10 -> 14        -0.14221
      12 -> 15         0.10753
      12 -> 16         0.21748
      12 -> 17         0.47438
      13 -> 18         0.12162
      13 -> 20        -0.38346
 
 Excited State  13:      Singlet-A     11.4833 eV  107.97 nm  f=0.0538  <S**2>=0.000
      10 -> 14         0.19171
      12 -> 17         0.44835
      13 -> 20         0.44933
 
 Excited State  14:      Singlet-A     11.8467 eV  104.66 nm  f=0.0238  <S**2>=0.000
       8 -> 14        -0.12845
      11 -> 15         0.62561
      11 -> 16         0.11099
      12 -> 18        -0.19309
 
 Excited State  15:      Singlet-A     11.9813 eV  103.48 nm  f=0.0315  <S**2>=0.000
      10 -> 15        -0.21912
      11 -> 15         0.13965
      11 -> 16         0.14766
      11 -> 18         0.17712
      12 -> 18         0.57602
 
 Excited State  16:      Singlet-A     12.2595 eV  101.13 nm  f=0.1282  <S**2>=0.000
       9 -> 14        -0.12840
      10 -> 15         0.60007
      10 -> 16         0.11223
      11 -> 15         0.10432
      12 -> 18         0.21521
 
 Excited State  17:      Singlet-A     12.3685 eV  100.24 nm  f=0.1148  <S**2>=0.000
       8 -> 14        -0.12441
       9 -> 14        -0.36229
      10 -> 16         0.14846
      11 -> 15        -0.11704
      11 -> 16         0.49348
      12 -> 18        -0.10004
      12 -> 19         0.15847
      12 -> 20        -0.12402
 
 Excited State  18:      Singlet-A     12.4457 eV   99.62 nm  f=0.1423  <S**2>=0.000
       9 -> 14        -0.26917
      10 -> 15        -0.12392
      10 -> 16         0.16305
      11 -> 15         0.10421
      11 -> 16        -0.37915
      11 -> 17        -0.10190
      12 -> 19         0.39870
      13 -> 21         0.14097
 
 Excited State  19:      Singlet-A     12.5734 eV   98.61 nm  f=0.0728  <S**2>=0.000
       9 -> 14         0.27663
      10 -> 15         0.16643
      10 -> 16        -0.26805
      11 -> 16         0.12615
      12 -> 19         0.48420
      12 -> 20         0.10529
 
 Excited State  20:      Singlet-A     12.6959 eV   97.66 nm  f=0.0503  <S**2>=0.000
       8 -> 14         0.13847
       9 -> 14         0.37904
      10 -> 16         0.48050
      10 -> 17        -0.14932
      10 -> 18         0.12923
      11 -> 18         0.12240
 
 Excited State  21:      Singlet-A     12.7390 eV   97.33 nm  f=0.1042  <S**2>=0.000
       8 -> 14         0.23207
      10 -> 16        -0.14256
      11 -> 17         0.55606
      13 -> 21         0.23005
 
 Excited State  22:      Singlet-A     12.8510 eV   96.48 nm  f=0.0282  <S**2>=0.000
      10 -> 17         0.25024
      11 -> 17        -0.25317
      12 -> 19        -0.11153
      13 -> 21         0.55288
 
 Excited State  23:      Singlet-A     13.1204 eV   94.50 nm  f=0.1075  <S**2>=0.000
      10 -> 16        -0.13495
      10 -> 18         0.20062
      11 -> 17        -0.11474
      11 -> 18         0.57347
      12 -> 18        -0.17424
      12 -> 20         0.10612
 
 Excited State  24:      Singlet-A     13.1432 eV   94.33 nm  f=0.2150  <S**2>=0.000
       8 -> 14        -0.24974
      10 -> 16         0.26354
      10 -> 17         0.48748
      10 -> 18        -0.14684
      11 -> 17         0.23794
 
 Excited State  25:      Singlet-A     13.2483 eV   93.59 nm  f=0.0788  <S**2>=0.000
       8 -> 14         0.15751
      10 -> 18        -0.13798
      10 -> 19        -0.10139
      11 -> 19        -0.10148
      12 -> 20         0.59178
 
 Excited State  26:      Singlet-A     13.3109 eV   93.15 nm  f=0.0523  <S**2>=0.000
       8 -> 14         0.47664
       9 -> 15        -0.12982
      10 -> 17         0.30756
      11 -> 15         0.11356
      11 -> 16         0.12516
      11 -> 17        -0.11161
      13 -> 21        -0.25219
 
 Excited State  27:      Singlet-A     13.4415 eV   92.24 nm  f=0.2051  <S**2>=0.000
       9 -> 15         0.20334
      10 -> 17         0.12811
      10 -> 18         0.50015
      11 -> 17         0.13005
      11 -> 18        -0.17094
      11 -> 19         0.28593
      12 -> 19        -0.10805
      12 -> 20         0.14640
 
 Excited State  28:      Singlet-A     13.6441 eV   90.87 nm  f=0.0500  <S**2>=0.000
       9 -> 15         0.58894
      10 -> 18        -0.22893
      10 -> 19         0.23072
 
 Excited State  29:      Singlet-A     13.6964 eV   90.52 nm  f=0.1252  <S**2>=0.000
       8 -> 14         0.13095
       8 -> 15         0.14547
       9 -> 17        -0.11338
      10 -> 17        -0.10670
      10 -> 18        -0.21567
      10 -> 19        -0.37192
      11 -> 18         0.12367
      11 -> 19         0.43485
 
 Excited State  30:      Singlet-A     14.0482 eV   88.26 nm  f=0.0041  <S**2>=0.000
       9 -> 15        -0.17148
       9 -> 16         0.40865
       9 -> 17        -0.10521
      10 -> 19         0.37514
      11 -> 19         0.31608
 SavETr:  write IOETrn=   770 NScale= 10 NData=  16 NLR=1 NState=   30 LETran=     550.

 **********************************************************************

            Population analysis using the SCF density.

 **********************************************************************

 Orbital symmetries:
       Occupied  (A) (A) (A) (A) (A) (A) (A) (A) (A) (A) (A) (A)
                 (A)
       Virtual   (A) (A) (A) (A) (A) (A) (A) (A) (A) (A) (A) (A)
                 (A) (A) (A) (A) (A) (A) (A) (A) (A) (A) (A) (A)
                 (A) (A) (A) (A) (A) (A) (A) (A) (A) (A) (A) (A)
                 (A) (A) (A) (A) (A) (A) (A) (A) (A) (A) (A) (A)
                 (A) (A) (A) (A) (A) (A) (A) (A) (A) (A) (A)
 The electronic state is 1-A.
 Alpha  occ. eigenvalues --  -19.19770 -10.29873 -10.25024  -1.08904  -0.82510
 Alpha  occ. eigenvalues --   -0.69545  -0.56524  -0.51938  -0.49567  -0.44466
 Alpha  occ. eigenvalues --   -0.43112  -0.38108  -0.32669
 Alpha virt. eigenvalues --    0.09790   0.13614   0.15517   0.17177   0.18374
 Alpha virt. eigenvalues --    0.20510   0.26454   0.29044   0.47268   0.49163
 Alpha virt. eigenvalues --    0.52954   0.56227   0.60187   0.63736   0.67603
 Alpha virt. eigenvalues --    0.71240   0.72038   0.72193   0.72839   0.75943
 Alpha virt. eigenvalues --    0.94814   0.96775   1.01302   1.08164   1.13141
 Alpha virt. eigenvalues --    1.19734   1.28129   1.32215   1.39247   1.46337
 Alpha virt. eigenvalues --    1.49672   1.55654   1.64530   1.66869   1.69234
 Alpha virt. eigenvalues --    1.72426   1.73136   1.74400   1.77033   1.83780
 Alpha virt. eigenvalues --    1.87718   1.94554   2.04112   2.05837   2.11886
 Alpha virt. eigenvalues --    2.17533   2.27415   2.28327   2.31000   2.49190
 Alpha virt. eigenvalues --    2.50595   2.56919   2.60846   2.64265   3.02401
 Alpha virt. eigenvalues --    3.10127   3.15473   3.31329   3.76187
          Condensed to atoms (all electrons):
               1          2          3          4          5          6
     1  C    4.595267   0.447011  -0.047913   0.354953   0.386284   0.384826
     2  C    0.447011   4.424444   0.363989  -0.010691  -0.022925  -0.021311
     3  O   -0.047913   0.363989   7.660534   0.004924  -0.001706   0.005444
     4  H    0.354953  -0.010691   0.004924   0.684074  -0.024456  -0.022346
     5  H    0.386284  -0.022925  -0.001706  -0.024456   0.683459  -0.035907
     6  H    0.384826  -0.021311   0.005444  -0.022346  -0.035907   0.660171
     7  H   -0.036119   0.379865  -0.032496   0.000722  -0.012412   0.010704
     8  H   -0.026205   0.383219  -0.022766  -0.002382   0.009038  -0.011783
     9  H   -0.002873  -0.053977   0.350782  -0.000277   0.007388  -0.001560
               7          8          9
     1  C   -0.036119  -0.026205  -0.002873
     2  C    0.379865   0.383219  -0.053977
     3  O   -0.032496  -0.022766   0.350782
     4  H    0.000722  -0.002382  -0.000277
     5  H   -0.012412   0.009038   0.007388
     6  H    0.010704  -0.011783  -0.001560
     7  H    0.743686  -0.048982  -0.007886
     8  H   -0.048982   0.684452   0.009250
     9  H   -0.007886   0.009250   0.561056
 Mulliken charges:
               1
     1  C   -0.055232
     2  C    0.110375
     3  O   -0.280793
     4  H    0.015479
     5  H    0.011236
     6  H    0.031762
     7  H    0.002918
     8  H    0.026157
     9  H    0.138098
 Sum of Mulliken charges =   0.00000
 Mulliken charges with hydrogens summed into heavy atoms:
               1
     1  C    0.003245
     2  C    0.139450
     3  O   -0.142695
 Electronic spatial extent (au):  <R**2>=            191.3418
 Charge=              0.0000 electrons
 Dipole moment (field-independent basis, Debye):
    X=             -1.0767    Y=             -0.1918    Z=              1.1217  Tot=              1.5666
 Quadrupole moment (field-independent basis, Debye-Ang):
   XX=            -22.1170   YY=            -18.3976   ZZ=            -19.0761
   XY=             -0.9479   XZ=              1.7149   YZ=             -1.4159
 Traceless Quadrupole moment (field-independent basis, Debye-Ang):
   XX=             -2.2535   YY=              1.4659   ZZ=              0.7875
   XY=             -0.9479   XZ=              1.7149   YZ=             -1.4159
 Octapole moment (field-independent basis, Debye-Ang**2):
  XXX=              2.9859  YYY=             -2.4189  ZZZ=              0.1865  XYY=              3.4655
  XXY=             -1.1482  XXZ=              1.9698  XZZ=              2.6543  YZZ=             -0.9672
  YYZ=              0.7634  XYZ=             -1.6214
 Hexadecapole moment (field-independent basis, Debye-Ang**3):
 XXXX=           -155.9038 YYYY=            -56.7045 ZZZZ=            -33.8574 XXXY=             -6.2977
 XXXZ=              2.4911 YYYX=             -4.2125 YYYZ=             -2.4152 ZZZX=              1.2713
 ZZZY=             -1.0142 XXYY=            -32.6252 XXZZ=            -30.5965 YYZZ=            -13.7271
 XXYZ=             -1.8314 YYXZ=              1.2809 ZZXY=             -0.8066
 N-N= 8.202406536796D+01 E-N=-5.262324972538D+02  KE= 1.539633120140D+02
 1\1\GINC-NODE659\SP\RCAM-B3LYP TD-FC\CC-pVDZ\C2H6O1\MAGBUK\07-Mar-2022
 \0\\# td=(nstates=30) cam-b3lyp/cc-pVDZ\\Ethanol.xyz\\0,1\C,0,1.0111,0
 .07708,-0.05953\C,0,2.52569,0.07985,-0.0664\O,0,3.00581,1.24365,-0.723
 65\H,0,0.62516,-0.80571,0.4578\H,0,0.61937,0.08556,-1.08199\H,0,0.6264
 5,0.97441,0.4362\H,0,2.91751,-0.80185,-0.58251\H,0,2.91316,0.08142,0.9
 5654\H,0,2.66453,1.22802,-1.63407\\Version=ES64L-G16RevA.03\State=1-A\
 HF=-154.9631897\RMSD=3.717e-09\PG=C01 [X(C2H6O1)]\\@


 IF YOU WISH TO UNDERSTAND THE FRAGRANCE OF THE ROSE, 
 OR THE TENACITY OF THE OAK; 
 IF YOU ARE NOT SATISFIED UNTIL YOU KNOW THE SECRET PATHS 
 BY WHICH THE SUNSHINE AND THE AIR ACHIEVE THESE WONDERS; 
 IF YOU WISH TO SEE THE PATTERN WHICH UNDERLIES ONE LARGE FIELD OF 
 HUMAN EXPERIENCE AND HUMAN MEASUREMENT, THEN TAKE UP CHEMISTRY.

                                         -- C. A. COULSON, 1973.
 Job cpu time:       0 days  0 hours  4 minutes  0.6 seconds.
 Elapsed time:       0 days  0 hours  4 minutes  0.8 seconds.
 File lengths (MBytes):  RWF=    131 Int=      0 D2E=      0 Chk=      7 Scr=      1
 Normal termination of Gaussian 16 at Mon Mar  7 19:41:13 2022.
