 Entering Gaussian System, Link 0=/opt/gaussian/g16/sse4/g16/g16
 Initial command:
 /opt/gaussian/g16/sse4/g16/l1.exe "/scratch/1554105/Gau-11795.inp" -scrdir="/scratch/1554105/"
 Entering Link 1 = /opt/gaussian/g16/sse4/g16/l1.exe PID=     11800.
  
 Copyright (c) 1988,1990,1992,1993,1995,1998,2003,2009,2016,
            Gaussian, Inc.  All Rights Reserved.
  
 This is part of the Gaussian(R) 16 program.  It is based on
 the Gaussian(R) 09 system (copyright 2009, Gaussian, Inc.),
 the Gaussian(R) 03 system (copyright 2003, Gaussian, Inc.),
 the Gaussian(R) 98 system (copyright 1998, Gaussian, Inc.),
 the Gaussian(R) 94 system (copyright 1995, Gaussian, Inc.),
 the Gaussian 92(TM) system (copyright 1992, Gaussian, Inc.),
 the Gaussian 90(TM) system (copyright 1990, Gaussian, Inc.),
 the Gaussian 88(TM) system (copyright 1988, Gaussian, Inc.),
 the Gaussian 86(TM) system (copyright 1986, Carnegie Mellon
 University), and the Gaussian 82(TM) system (copyright 1983,
 Carnegie Mellon University). Gaussian is a federally registered
 trademark of Gaussian, Inc.
  
 This software contains proprietary and confidential information,
 including trade secrets, belonging to Gaussian, Inc.
  
 This software is provided under written license and may be
 used, copied, transmitted, or stored only in accord with that
 written license.
  
 The following legend is applicable only to US Government
 contracts under FAR:
  
                    RESTRICTED RIGHTS LEGEND
  
 Use, reproduction and disclosure by the US Government is
 subject to restrictions as set forth in subparagraphs (a)
 and (c) of the Commercial Computer Software - Restricted
 Rights clause in FAR 52.227-19.
  
 Gaussian, Inc.
 340 Quinnipiac St., Bldg. 40, Wallingford CT 06492
  
  
 ---------------------------------------------------------------
 Warning -- This program may not be used in any manner that
 competes with the business of Gaussian, Inc. or will provide
 assistance to any competitor of Gaussian, Inc.  The licensee
 of this program is prohibited from giving any competitor of
 Gaussian, Inc. access to this program.  By using this program,
 the user acknowledges that Gaussian, Inc. is engaged in the
 business of creating and licensing software in the field of
 computational chemistry and represents and warrants to the
 licensee that it is not a competitor of Gaussian, Inc. and that
 it will not use this program in any manner prohibited above.
 ---------------------------------------------------------------
  

 Cite this work as:
 Gaussian 16, Revision A.03,
 M. J. Frisch, G. W. Trucks, H. B. Schlegel, G. E. Scuseria, 
 M. A. Robb, J. R. Cheeseman, G. Scalmani, V. Barone, 
 G. A. Petersson, H. Nakatsuji, X. Li, M. Caricato, A. V. Marenich, 
 J. Bloino, B. G. Janesko, R. Gomperts, B. Mennucci, H. P. Hratchian, 
 J. V. Ortiz, A. F. Izmaylov, J. L. Sonnenberg, D. Williams-Young, 
 F. Ding, F. Lipparini, F. Egidi, J. Goings, B. Peng, A. Petrone, 
 T. Henderson, D. Ranasinghe, V. G. Zakrzewski, J. Gao, N. Rega, 
 G. Zheng, W. Liang, M. Hada, M. Ehara, K. Toyota, R. Fukuda, 
 J. Hasegawa, M. Ishida, T. Nakajima, Y. Honda, O. Kitao, H. Nakai, 
 T. Vreven, K. Throssell, J. A. Montgomery, Jr., J. E. Peralta, 
 F. Ogliaro, M. J. Bearpark, J. J. Heyd, E. N. Brothers, K. N. Kudin, 
 V. N. Staroverov, T. A. Keith, R. Kobayashi, J. Normand, 
 K. Raghavachari, A. P. Rendell, J. C. Burant, S. S. Iyengar, 
 J. Tomasi, M. Cossi, J. M. Millam, M. Klene, C. Adamo, R. Cammi, 
 J. W. Ochterski, R. L. Martin, K. Morokuma, O. Farkas, 
 J. B. Foresman, and D. J. Fox, Gaussian, Inc., Wallingford CT, 2016.
 
 ******************************************
 Gaussian 16:  ES64L-G16RevA.03 25-Dec-2016
                 7-Mar-2022 
 ******************************************
 %chk=Water.chk
 %mem=4GB
 %nprocshared=1
 Will use up to    1 processors via shared memory.
 -----------------------------------
 # td=(nstates=30) cam-b3lyp/cc-pVDZ
 -----------------------------------
 1/38=1,172=1/1;
 2/12=2,17=6,18=5,40=1/2;
 3/5=16,11=9,25=1,30=1,74=-40/1,2,3,8;
 4//1;
 5/5=2,38=5/2;
 8/6=1,10=1,108=30/1;
 9/41=30,42=1,70=2/14;
 6/7=2,8=2,9=2,10=2/1;
 99/5=1,9=1/99;
 ---------
 Water.xyz
 ---------
 Symbolic Z-matrix:
 Charge =  0 Multiplicity = 1
 O                     0.90644  -0.06978   0.02183 
 H                     1.87433  -0.04844  -0.01941 
 H                     0.62759   0.35671  -0.80237 
 
                          Input orientation:                          
 ---------------------------------------------------------------------
 Center     Atomic      Atomic             Coordinates (Angstroms)
 Number     Number       Type             X           Y           Z
 ---------------------------------------------------------------------
      1          8           0        0.906440   -0.069780    0.021830
      2          1           0        1.874330   -0.048440   -0.019410
      3          1           0        0.627590    0.356710   -0.802370
 ---------------------------------------------------------------------
                    Distance matrix (angstroms):
                    1          2          3
     1  O    0.000000
     2  H    0.969003   0.000000
     3  H    0.968998   1.526936   0.000000
 Stoichiometry    H2O
 Framework group  CS[SG(H2O)]
 Deg. of freedom     3
 Full point group                 CS      NOp   2
 Largest Abelian subgroup         CS      NOp   2
 Largest concise Abelian subgroup C1      NOp   1
                         Standard orientation:                         
 ---------------------------------------------------------------------
 Center     Atomic      Atomic             Coordinates (Angstroms)
 Number     Number       Type             X           Y           Z
 ---------------------------------------------------------------------
      1          8           0       -0.000000    0.119345    0.000000
      2          1           0        0.763468   -0.477383    0.000000
      3          1           0       -0.763468   -0.477374   -0.000000
 ---------------------------------------------------------------------
 Rotational constants (GHZ):         792.8693766         430.1504584         278.8614837
 Standard basis: CC-pVDZ (5D, 7F)
 There are    19 symmetry adapted cartesian basis functions of A'  symmetry.
 There are     6 symmetry adapted cartesian basis functions of A"  symmetry.
 There are    18 symmetry adapted basis functions of A'  symmetry.
 There are     6 symmetry adapted basis functions of A"  symmetry.
    24 basis functions,    47 primitive gaussians,    25 cartesian basis functions
     5 alpha electrons        5 beta electrons
       nuclear repulsion energy         9.0842613495 Hartrees.
 NAtoms=    3 NActive=    3 NUniq=    3 SFac= 1.00D+00 NAtFMM=   60 NAOKFM=F Big=F
 Integral buffers will be    131072 words long.
 Raffenetti 1 integral format.
 Two-electron integral symmetry is turned on.
 One-electron integrals computed using PRISM.
 NBasis=    24 RedAO= T EigKep=  3.53D-02  NBF=    18     6
 NBsUse=    24 1.00D-06 EigRej= -1.00D+00 NBFU=    18     6
 ExpMin= 1.22D-01 ExpMax= 1.17D+04 ExpMxC= 4.01D+02 IAcc=3 IRadAn=         5 AccDes= 0.00D+00
 Harris functional with IExCor=20419 and IRadAn=       5 diagonalized for initial guess.
 HarFok:  IExCor=20419 AccDes= 0.00D+00 IRadAn=         5 IDoV= 1 UseB2=F ITyADJ=14
 ICtDFT=  3500011 ScaDFX=  1.000000  1.000000  1.000000  1.000000
 FoFCou: FMM=F IPFlag=           0 FMFlag=      100000 FMFlg1=           0
         NFxFlg=           0 DoJE=T BraDBF=F KetDBF=T FulRan=T
         wScrn=  0.000000 ICntrl=       500 IOpCl=  0 I1Cent=   200000004 NGrid=           0
         NMat0=    1 NMatS0=      1 NMatT0=    0 NMatD0=    1 NMtDS0=    0 NMtDT0=    0
 Petite list used in FoFCou.
 Initial guess orbital symmetries:
       Occupied  (A') (A') (A') (A') (A")
       Virtual   (A') (A') (A') (A') (A') (A") (A') (A') (A") (A")
                 (A') (A') (A') (A') (A") (A") (A') (A') (A')
 The electronic state of the initial guess is 1-A'.
 Keep R1 ints in memory in symmetry-blocked form, NReq=953627.
 Requested convergence on RMS density matrix=1.00D-08 within 128 cycles.
 Requested convergence on MAX density matrix=1.00D-06.
 Requested convergence on             energy=1.00D-06.
 No special actions if energy rises.
 Integral accuracy reduced to 1.0D-05 until final iterations.
 Initial convergence to 1.0D-05 achieved.  Increase integral accuracy.
 SCF Done:  E(RCAM-B3LYP) =  -76.3919340806     A.U. after   10 cycles
            NFock= 10  Conv=0.52D-08     -V/T= 2.0052
 DoSCS=F DFT=T ScalE2(SS,OS)=  1.000000  1.000000
 ExpMin= 1.22D-01 ExpMax= 1.17D+04 ExpMxC= 4.01D+02 IAcc=3 IRadAn=         5 AccDes= 0.00D+00
 HarFok:  IExCor=  205 AccDes= 0.00D+00 IRadAn=         5 IDoV=-2 UseB2=F ITyADJ=14
 ICtDFT= 12500011 ScaDFX=  1.000000  1.000000  1.000000  1.000000
 Range of M.O.s used for correlation:     2    24
 NBasis=    24 NAE=     5 NBE=     5 NFC=     1 NFV=     0
 NROrb=     23 NOA=     4 NOB=     4 NVA=    19 NVB=    19
 Keep R1, R2, and R3 ints in memory in symmetry-blocked form, NReq=2175206.
 Orbital symmetries:
       Occupied  (A') (A') (A') (A') (A")
       Virtual   (A') (A') (A') (A') (A') (A") (A') (A') (A") (A")
                 (A') (A') (A') (A') (A") (A") (A') (A') (A')
    76 initial guesses have been made.
 Convergence on wavefunction:    0.001000000000000
 *** WARNING: Number of orthogonal guesses is           76
 Iteration     1 Dimension    76 NMult     0 NNew     76
 CISAX will form    76 AO SS matrices at one time.
 New state     14 was old state     15
 New state     15 was old state     14
 New state     16 was old state     17
 New state     17 was old state     19
 New state     19 was old state     20
 New state     20 was old state     24
 New state     21 was old state     22
 New state     22 was old state     21
 New state     24 was old state     25
 New state     25 was old state     27
 New state     27 was old state     28
 New state     28 was old state     29
 New state     29 was old state     30
 New state     30 was old state     31
 ***********************************************************************
 Excited states from <AA,BB:AA,BB> singles matrix:
 ***********************************************************************
 
 Ground to excited state transition densities written to RWF  633
 Ground to excited state transition electric dipole moments (Au):
       state          X           Y           Z        Dip. S.      Osc.
         1         0.0000      0.0000      0.3451      0.1191      0.0221
         2         0.0000      0.0000     -0.0000      0.0000      0.0000
         3        -0.0000      0.5748     -0.0000      0.3304      0.0807
         4        -0.4392     -0.0000      0.0000      0.1929      0.0567
         5         0.9216     -0.0000     -0.0000      0.8494      0.2884
         6        -0.0000     -0.5497     -0.0000      0.3021      0.1250
         7        -0.0000      0.0000      0.0000      0.0000      0.0000
         8        -0.0000      0.0000      0.3410      0.1163      0.0644
         9         0.4585      0.0000     -0.0000      0.2103      0.1237
        10        -0.0000      0.0729     -0.0000      0.0053      0.0032
        11        -0.0000     -0.0721      0.0000      0.0052      0.0035
        12        -0.0000      0.5593     -0.0000      0.3128      0.2181
        13         0.2677      0.0000      0.0000      0.0717      0.0516
        14        -0.0000      0.0000      0.0843      0.0071      0.0052
        15        -0.6130     -0.0000     -0.0000      0.3758      0.2756
        16        -0.0000     -0.1338     -0.0000      0.0179      0.0137
        17        -0.0000      0.0000     -0.0148      0.0002      0.0002
        18         0.0000      0.0000     -0.0000      0.0000      0.0000
        19        -0.2794      0.0000     -0.0000      0.0781      0.0660
        20        -0.0001     -0.2958     -0.0000      0.0875      0.0775
        21        -0.0000      0.0000     -0.0000      0.0000      0.0000
        22        -0.4237      0.0000      0.0000      0.1795      0.1595
        23         0.0000     -0.0000     -0.0504      0.0025      0.0024
        24        -0.6148      0.0000     -0.0000      0.3780      0.3729
        25        -0.0000     -0.3876     -0.0000      0.1502      0.1503
        26        -0.5074      0.0000     -0.0000      0.2575      0.2594
        27        -0.0000     -0.0000      0.0000      0.0000      0.0000
        28         0.0000      0.5867     -0.0000      0.3442      0.3525
        29         0.5725     -0.0000     -0.0000      0.3277      0.3618
        30         0.0000      0.5486     -0.0000      0.3009      0.3337
 Ground to excited state transition velocity dipole moments (Au):
       state          X           Y           Z        Dip. S.      Osc.
         1        -0.0000     -0.0000     -0.2247      0.0505      0.1207
         2        -0.0000     -0.0000      0.0000      0.0000      0.0000
         3         0.0000     -0.3206     -0.0000      0.1028      0.1871
         4         0.2067      0.0000     -0.0000      0.0427      0.0647
         5        -0.4837      0.0000      0.0000      0.2340      0.3063
         6         0.0000      0.3570      0.0000      0.1274      0.1369
         7        -0.0000     -0.0000     -0.0000      0.0000      0.0000
         8        -0.0000     -0.0000     -0.2745      0.0753      0.0605
         9        -0.3875     -0.0000      0.0000      0.1501      0.1134
        10         0.0000     -0.1219      0.0000      0.0149      0.0109
        11         0.0000      0.0644     -0.0000      0.0041      0.0027
        12         0.0000     -0.5609      0.0000      0.3146      0.2006
        13        -0.2478     -0.0000     -0.0000      0.0614      0.0379
        14         0.0000     -0.0000     -0.1399      0.0196      0.0119
        15         0.6083      0.0000      0.0000      0.3700      0.2242
        16         0.0000      0.2149      0.0000      0.0462      0.0269
        17        -0.0000     -0.0000      0.1637      0.0268      0.0151
        18        -0.0000     -0.0000     -0.0000      0.0000      0.0000
        19         0.4064     -0.0000      0.0000      0.1651      0.0868
        20         0.0001      0.2865      0.0000      0.0821      0.0412
        21         0.0000     -0.0000      0.0000      0.0000      0.0000
        22         0.5232     -0.0000      0.0000      0.2737      0.1369
        23        -0.0000      0.0000      0.0357      0.0013      0.0006
        24         0.6588     -0.0000      0.0000      0.4340      0.1956
        25         0.0001      0.4216      0.0000      0.1778      0.0789
        26         0.6289     -0.0001      0.0000      0.3955      0.1745
        27         0.0000      0.0000     -0.0000      0.0000      0.0000
        28        -0.0000     -0.7597      0.0000      0.5771      0.2505
        29        -0.6730      0.0000      0.0000      0.4529      0.1823
        30        -0.0000     -0.6353      0.0000      0.4036      0.1618
 Ground to excited state transition magnetic dipole moments (Au):
       state          X           Y           Z
         1         0.1815      0.0000     -0.0000
         2         0.0000      0.2934     -0.0000
         3        -0.0000      0.0000     -0.0000
         4        -0.0000      0.0000     -0.3176
         5        -0.0000     -0.0000     -0.0835
         6         0.0000     -0.0000     -0.0000
         7        -0.0000     -0.2639     -0.0000
         8        -0.2215      0.0000      0.0000
         9         0.0000     -0.0000      0.5343
        10        -0.0000     -0.0000     -0.0000
        11        -0.0000     -0.0000     -0.0000
        12         0.0000     -0.0000      0.0000
        13        -0.0000     -0.0000      0.0572
        14        -0.0921      0.0000      0.0000
        15         0.0000     -0.0000      0.1275
        16         0.0000      0.0000     -0.0000
        17         0.1277      0.0000     -0.0000
        18        -0.0000      0.0467      0.0000
        19        -0.0000      0.0000     -0.3165
        20        -0.0000     -0.0000      0.0000
        21        -0.0000     -0.1996      0.0000
        22        -0.0000      0.0000      0.3479
        23        -0.0274      0.0000     -0.0000
        24        -0.0000      0.0000     -0.0835
        25        -0.0000      0.0000     -0.0000
        26        -0.0000     -0.0000     -0.2315
        27         0.0000      0.3724     -0.0000
        28         0.0000      0.0000      0.0000
        29        -0.0000      0.0000     -0.5174
        30        -0.0000     -0.0000     -0.0000
 Ground to excited state transition velocity quadrupole moments (Au):
       state          XX          YY          ZZ          XY          XZ          YZ
         1        -0.0000     -0.0000      0.0000      0.0000     -0.0000      0.1076
         2         0.0000      0.0000      0.0000     -0.0000     -0.2844     -0.0000
         3         0.1360      0.2531      0.0108     -0.0000     -0.0000     -0.0000
         4        -0.0000      0.0000      0.0000     -0.3886     -0.0000     -0.0000
         5        -0.0000     -0.0000     -0.0000      0.3818     -0.0000      0.0000
         6        -1.3137     -0.4128     -0.2142      0.0000      0.0000      0.0000
         7         0.0000      0.0000     -0.0000     -0.0000     -0.4371      0.0000
         8        -0.0000     -0.0000     -0.0000     -0.0000      0.0000      0.0289
         9        -0.0000      0.0000      0.0000     -0.1136      0.0000      0.0000
        10        -0.3867      0.2978      0.1736      0.0000     -0.0000      0.0000
        11        -0.9540     -0.5667     -0.1780      0.0000      0.0000      0.0000
        12        -0.1049     -0.0604     -0.7290     -0.0000     -0.0000     -0.0000
        13         0.0000      0.0000     -0.0000      0.6030     -0.0000      0.0000
        14         0.0000      0.0000      0.0000     -0.0000      0.0000      0.4179
        15         0.0000      0.0000      0.0000     -0.6394     -0.0000     -0.0000
        16        -0.3390      0.6675     -0.7493      0.0000     -0.0000      0.0000
        17         0.0000     -0.0000      0.0000      0.0000      0.0000      0.5914
        18        -0.0000      0.0000     -0.0000     -0.0000      0.3971     -0.0000
        19         0.0000      0.0000      0.0000      0.3592      0.0000     -0.0000
        20         0.0430     -1.3095     -0.8798      0.0000      0.0000     -0.0000
        21        -0.0000      0.0000      0.0000      0.0000      0.5786     -0.0000
        22         0.0000      0.0002      0.0001      0.3373     -0.0000      0.0000
        23         0.0000     -0.0000      0.0000     -0.0000      0.0000      0.4051
        24         0.0000      0.0000      0.0000      0.0047      0.0000     -0.0000
        25        -0.1232     -0.2476     -0.6459     -0.0000     -0.0000      0.0000
        26         0.0000     -0.0000     -0.0000     -1.0930      0.0000     -0.0000
        27        -0.0000      0.0000      0.0000     -0.0000     -0.5236      0.0000
        28         0.0086     -0.6757     -0.7177      0.0001     -0.0000      0.0000
        29        -0.0001     -0.0000      0.0000     -0.0531     -0.0000     -0.0000
        30         1.6429      0.6171     -0.3419      0.0000      0.0000     -0.0000
 <0|del|b> * <b|rxdel|0> + <0|del|b> * <b|delr+rdel|0>
 Rotatory Strengths (R) in cgs (10**-40 erg-esu-cm/Gauss)
       state          XX          YY          ZZ    R(velocity)    E-M Angle
         1         0.0000      0.0000     -0.0000      0.0000       90.00
         2        -0.0000     -0.0000     -0.0000     -0.0000       90.00
         3        -0.0000      0.0000      0.0000     -0.0000       90.00
         4         0.0000     -0.0000      0.0000      0.0000       90.00
         5         0.0000     -0.0000      0.0000     -0.0000       90.00
         6        -0.0000     -0.0000      0.0000     -0.0000       90.00
         7        -0.0000      0.0000      0.0000      0.0000       90.00
         8         0.0000     -0.0000      0.0000     -0.0000       90.00
         9         0.0000      0.0000      0.0000      0.0000       90.00
        10         0.0000     -0.0000      0.0000      0.0000       90.00
        11        -0.0000      0.0000      0.0000     -0.0000       90.00
        12         0.0000     -0.0000      0.0000      0.0000       90.00
        13        -0.0000     -0.0000      0.0000      0.0000       90.00
        14         0.0000      0.0000     -0.0000     -0.0000       90.00
        15        -0.0000      0.0000      0.0000      0.0000       90.00
        16         0.0000      0.0000     -0.0000      0.0000       90.00
        17         0.0000     -0.0000      0.0000     -0.0000       90.00
        18         0.0000      0.0000     -0.0000     -0.0000       90.00
        19         0.0000     -0.0000      0.0000     -0.0000       90.00
        20        -0.0000     -0.0000      0.0000     -0.0000       90.00
        21         0.0000     -0.0000     -0.0000      0.0000       90.00
        22         0.0000      0.0000     -0.0000      0.0000       90.00
        23        -0.0000     -0.0000      0.0000      0.0000       90.00
        24        -0.0000     -0.0000      0.0000     -0.0000       90.00
        25         0.0000      0.0000     -0.0000      0.0000       90.00
        26        -0.0000     -0.0000      0.0000     -0.0000       90.00
        27         0.0000     -0.0000     -0.0000      0.0000       90.00
        28        -0.0000     -0.0000      0.0000     -0.0000       90.00
        29        -0.0000      0.0000     -0.0000     -0.0000       90.00
        30         0.0000      0.0000     -0.0000      0.0000       90.00
 1/2[<0|r|b>*<b|rxdel|0> + (<0|rxdel|b>*<b|r|0>)*]
 Rotatory Strengths (R) in cgs (10**-40 erg-esu-cm/Gauss)
       state          XX          YY          ZZ     R(length)
         1        -0.0000     -0.0000      0.0000      0.0000
         2        -0.0000     -0.0000     -0.0000     -0.0000
         3        -0.0000     -0.0000     -0.0000     -0.0000
         4        -0.0000      0.0000      0.0000     -0.0000
         5         0.0000     -0.0000     -0.0000      0.0000
         6         0.0000     -0.0000     -0.0000     -0.0000
         7        -0.0000      0.0000      0.0000      0.0000
         8        -0.0000     -0.0000     -0.0000     -0.0000
         9        -0.0000      0.0000      0.0000     -0.0000
        10        -0.0000      0.0000     -0.0000      0.0000
        11        -0.0000     -0.0000      0.0000     -0.0000
        12         0.0000      0.0000      0.0000      0.0000
        13         0.0000      0.0000     -0.0000      0.0000
        14        -0.0000     -0.0000     -0.0000     -0.0000
        15         0.0000     -0.0000      0.0000      0.0000
        16         0.0000      0.0000     -0.0000      0.0000
        17         0.0000     -0.0000     -0.0000      0.0000
        18         0.0000     -0.0000      0.0000     -0.0000
        19        -0.0000     -0.0000     -0.0000     -0.0000
        20        -0.0000     -0.0000      0.0000     -0.0000
        21        -0.0000      0.0000      0.0000      0.0000
        22        -0.0000     -0.0000     -0.0000     -0.0000
        23         0.0000      0.0000     -0.0000     -0.0000
        24        -0.0000     -0.0000     -0.0000     -0.0000
        25        -0.0000      0.0000     -0.0000      0.0000
        26        -0.0000      0.0000     -0.0000     -0.0000
        27         0.0000      0.0000      0.0000      0.0000
        28        -0.0000     -0.0000      0.0000     -0.0000
        29         0.0000      0.0000     -0.0000     -0.0000
        30         0.0000      0.0000     -0.0000      0.0000
  1/2[<0|del|b>*<b|r|0> + (<0|r|b>*<b|del|0>)*] (Au)
       state          X           Y           Z        Dip. S.   Osc.(frdel)
         1        -0.0000     -0.0000     -0.0775      0.0775      0.0517
         2        -0.0000     -0.0000     -0.0000      0.0000      0.0000
         3        -0.0000     -0.1843      0.0000      0.1843      0.1229
         4        -0.0908     -0.0000     -0.0000      0.0908      0.0605
         5        -0.4458     -0.0000     -0.0000      0.4458      0.2972
         6        -0.0000     -0.1962     -0.0000      0.1962      0.1308
         7         0.0000     -0.0000     -0.0000      0.0000      0.0000
         8         0.0000     -0.0000     -0.0936      0.0936      0.0624
         9        -0.1777     -0.0000     -0.0000      0.1777      0.1184
        10        -0.0000     -0.0089     -0.0000      0.0089      0.0059
        11        -0.0000     -0.0046     -0.0000      0.0046      0.0031
        12        -0.0000     -0.3137     -0.0000      0.3137      0.2091
        13        -0.0663     -0.0000     -0.0000      0.0663      0.0442
        14        -0.0000     -0.0000     -0.0118      0.0118      0.0079
        15        -0.3729     -0.0000     -0.0000      0.3729      0.2486
        16        -0.0000     -0.0288     -0.0000      0.0288      0.0192
        17         0.0000     -0.0000     -0.0024      0.0024      0.0016
        18        -0.0000     -0.0000      0.0000     -0.0000     -0.0000
        19        -0.1135     -0.0000     -0.0000      0.1135      0.0757
        20        -0.0000     -0.0848     -0.0000      0.0848      0.0565
        21        -0.0000     -0.0000     -0.0000      0.0000      0.0000
        22        -0.2217     -0.0000      0.0000      0.2217      0.1478
        23        -0.0000     -0.0000     -0.0018      0.0018      0.0012
        24        -0.4051     -0.0000     -0.0000      0.4051      0.2700
        25        -0.0000     -0.1634     -0.0000      0.1634      0.1089
        26        -0.3191     -0.0000     -0.0000      0.3191      0.2127
        27        -0.0000     -0.0000     -0.0000      0.0000      0.0000
        28        -0.0000     -0.4457     -0.0000      0.4457      0.2971
        29        -0.3853     -0.0000     -0.0000      0.3853      0.2569
        30        -0.0000     -0.3485     -0.0000      0.3485      0.2323

 Excitation energies and oscillator strengths:
 
 Excited State   1:      Singlet-A"     7.5871 eV  163.42 nm  f=0.0221  <S**2>=0.000
       5 ->  6         0.70670
 This state for optimization and/or second-order correction.
 Total Energy, E(TD-HF/TD-DFT) =  -76.1131149106    
 Copying the excited state density for this state as the 1-particle RhoCI density.
 
 Excited State   2:      Singlet-A"     9.4994 eV  130.52 nm  f=0.0000  <S**2>=0.000
       5 ->  7         0.70492
 
 Excited State   3:      Singlet-A'     9.9693 eV  124.37 nm  f=0.0807  <S**2>=0.000
       4 ->  6         0.70354
 
 Excited State   4:      Singlet-A'    11.9909 eV  103.40 nm  f=0.0567  <S**2>=0.000
       4 ->  7         0.70225
 
 Excited State   5:      Singlet-A'    13.8586 eV   89.46 nm  f=0.2884  <S**2>=0.000
       3 ->  6         0.70270
 
 Excited State   6:      Singlet-A'    16.8812 eV   73.45 nm  f=0.1250  <S**2>=0.000
       3 ->  7         0.69619
 
 Excited State   7:      Singlet-A"    20.7903 eV   59.64 nm  f=0.0000  <S**2>=0.000
       5 ->  8         0.70521
 
 Excited State   8:      Singlet-A"    22.5960 eV   54.87 nm  f=0.0644  <S**2>=0.000
       5 ->  9         0.70449
 
 Excited State   9:      Singlet-A'    24.0118 eV   51.63 nm  f=0.1237  <S**2>=0.000
       3 ->  9         0.14663
       4 ->  8         0.68739
 
 Excited State  10:      Singlet-A'    24.8419 eV   49.91 nm  f=0.0032  <S**2>=0.000
       2 ->  6        -0.12429
       3 ->  8         0.10276
       4 ->  9         0.68310
 
 Excited State  11:      Singlet-A'    27.4988 eV   45.09 nm  f=0.0035  <S**2>=0.000
       2 ->  6         0.66830
       3 ->  8         0.13344
       5 -> 11         0.16049
 
 Excited State  12:      Singlet-A'    28.4577 eV   43.57 nm  f=0.2181  <S**2>=0.000
       3 ->  8         0.66433
       5 -> 11        -0.17697
 
 Excited State  13:      Singlet-A'    29.3859 eV   42.19 nm  f=0.0516  <S**2>=0.000
       2 ->  7         0.70187
 
 Excited State  14:      Singlet-A"    29.8117 eV   41.59 nm  f=0.0052  <S**2>=0.000
       5 -> 10         0.70168
 
 Excited State  15:      Singlet-A'    29.9328 eV   41.42 nm  f=0.2756  <S**2>=0.000
       3 ->  9         0.67844
       4 ->  8        -0.14021
 
 Excited State  16:      Singlet-A'    31.2064 eV   39.73 nm  f=0.0137  <S**2>=0.000
       2 ->  6         0.10405
       4 -> 10         0.49274
       5 -> 11        -0.48502
 
 Excited State  17:      Singlet-A"    32.1662 eV   38.54 nm  f=0.0002  <S**2>=0.000
       4 -> 11         0.70350
 
 Excited State  18:      Singlet-A"    32.2973 eV   38.39 nm  f=0.0000  <S**2>=0.000
       5 -> 12         0.70641
 
 Excited State  19:      Singlet-A'    34.5069 eV   35.93 nm  f=0.0660  <S**2>=0.000
       4 -> 12         0.69825
 
 Excited State  20:      Singlet-A'    36.1257 eV   34.32 nm  f=0.0775  <S**2>=0.000
       3 ->  8        -0.11385
       3 -> 12         0.43955
       4 -> 10        -0.40851
       5 -> 11        -0.31778
 
 Excited State  21:      Singlet-A"    36.1340 eV   34.31 nm  f=0.0000  <S**2>=0.000
       3 -> 11         0.70697
 
 Excited State  22:      Singlet-A'    36.2559 eV   34.20 nm  f=0.1595  <S**2>=0.000
       3 -> 10         0.68160
       5 -> 14        -0.14150
 
 Excited State  23:      Singlet-A"    38.2879 eV   32.38 nm  f=0.0024  <S**2>=0.000
       5 -> 13         0.70576
 
 Excited State  24:      Singlet-A'    40.2585 eV   30.80 nm  f=0.3729  <S**2>=0.000
       2 ->  8        -0.33411
       3 -> 13         0.11877
       5 -> 14         0.59810
 
 Excited State  25:      Singlet-A'    40.8504 eV   30.35 nm  f=0.1503  <S**2>=0.000
       2 ->  9         0.31860
       3 -> 12        -0.33328
       4 -> 10        -0.14949
       4 -> 13         0.46786
       5 -> 11        -0.13064
       5 -> 15         0.12027
 
 Excited State  26:      Singlet-A'    41.1278 eV   30.15 nm  f=0.2594  <S**2>=0.000
       2 ->  8         0.62000
       5 -> 14         0.31100
 
 Excited State  27:      Singlet-A"    41.3312 eV   30.00 nm  f=0.0000  <S**2>=0.000
       4 -> 14         0.70696
 
 Excited State  28:      Singlet-A'    41.7980 eV   29.66 nm  f=0.3525  <S**2>=0.000
       2 ->  9         0.48185
       3 -> 12        -0.18227
       4 -> 13        -0.45236
       5 -> 15        -0.15299
 
 Excited State  29:      Singlet-A'    45.0630 eV   27.51 nm  f=0.3618  <S**2>=0.000
       3 -> 13         0.69277
       5 -> 14        -0.11192
 
 Excited State  30:      Singlet-A'    45.2674 eV   27.39 nm  f=0.3337  <S**2>=0.000
       2 ->  9         0.27242
       3 -> 12         0.21981
       4 -> 10         0.15628
       4 -> 16        -0.13497
       5 -> 11         0.16825
       5 -> 15         0.53347
 SavETr:  write IOETrn=   770 NScale= 10 NData=  16 NLR=1 NState=   30 LETran=     550.

 **********************************************************************

            Population analysis using the SCF density.

 **********************************************************************

 Orbital symmetries:
       Occupied  (A') (A') (A') (A') (A")
       Virtual   (A') (A') (A') (A') (A') (A") (A') (A') (A") (A")
                 (A') (A') (A') (A') (A") (A") (A') (A') (A')
 The electronic state is 1-A'.
 Alpha  occ. eigenvalues --  -19.19614  -1.06885  -0.57620  -0.43299  -0.35684
 Alpha virt. eigenvalues --    0.09752   0.17277   0.61745   0.67288   0.97005
 Alpha virt. eigenvalues --    0.98766   1.05937   1.26967   1.30204   1.49309
 Alpha virt. eigenvalues --    1.66204   1.73409   2.16541   2.20357   2.99244
 Alpha virt. eigenvalues --    3.03244   3.19848   3.53092   3.80551
          Condensed to atoms (all electrons):
               1          2          3
     1  O    7.561649   0.354908   0.354909
     2  H    0.354908   0.551168  -0.041809
     3  H    0.354909  -0.041809   0.551168
 Mulliken charges:
               1
     1  O   -0.271466
     2  H    0.135734
     3  H    0.135732
 Sum of Mulliken charges =   0.00000
 Mulliken charges with hydrogens summed into heavy atoms:
               1
     1  O    0.000000
 Electronic spatial extent (au):  <R**2>=             18.9888
 Charge=              0.0000 electrons
 Dipole moment (field-independent basis, Debye):
    X=             -0.0000    Y=             -1.9568    Z=             -0.0000  Tot=              1.9568
 Quadrupole moment (field-independent basis, Debye-Ang):
   XX=             -4.2724   YY=             -5.9144   ZZ=             -7.0179
   XY=             -0.0000   XZ=              0.0000   YZ=             -0.0000
 Traceless Quadrupole moment (field-independent basis, Debye-Ang):
   XX=              1.4625   YY=             -0.1795   ZZ=             -1.2830
   XY=             -0.0000   XZ=              0.0000   YZ=             -0.0000
 Octapole moment (field-independent basis, Debye-Ang**2):
  XXX=             -0.0000  YYY=             -1.0182  ZZZ=             -0.0000  XYY=              0.0000
  XXY=             -1.1523  XXZ=             -0.0000  XZZ=             -0.0000  YZZ=             -0.2481
  YYZ=             -0.0000  XYZ=             -0.0000
 Hexadecapole moment (field-independent basis, Debye-Ang**3):
 XXXX=             -6.1225 YYYY=             -6.0365 ZZZZ=             -4.8618 XXXY=              0.0000
 XXXZ=             -0.0000 YYYX=              0.0000 YYYZ=             -0.0000 ZZZX=             -0.0000
 ZZZY=             -0.0000 XXYY=             -1.6801 XXZZ=             -2.1066 YYZZ=             -1.8724
 XXYZ=              0.0000 YYXZ=             -0.0000 ZZXY=              0.0000
 N-N= 9.084261349486D+00 E-N=-1.990156061433D+02  KE= 7.599712352443D+01
 Symmetry A'   KE= 7.139408383787D+01
 Symmetry A"   KE= 4.603039686561D+00
 1\1\GINC-NODE659\SP\RCAM-B3LYP TD-FC\CC-pVDZ\H2O1\MAGBUK\07-Mar-2022\0
 \\# td=(nstates=30) cam-b3lyp/cc-pVDZ\\Water.xyz\\0,1\O,0,0.90644,-0.0
 6978,0.02183\H,0,1.87433,-0.04844,-0.01941\H,0,0.62759,0.35671,-0.8023
 7\\Version=ES64L-G16RevA.03\State=1-A'\HF=-76.3919341\RMSD=5.159e-09\P
 G=CS [SG(H2O1)]\\@


 "THE TIME HAS COME", THE WALRUS SAID,
 "TO TALK OF MANY THINGS,
 OF SHOES AND SHIPS AND SEALING WAX,
 OF CABBAGES AND KINGS,
 AND WHY THE SEA IS BOILING HOT,
 AND WHETHER PIGS HAVE WINGS."
 Job cpu time:       0 days  0 hours  0 minutes  6.5 seconds.
 Elapsed time:       0 days  0 hours  0 minutes  6.5 seconds.
 File lengths (MBytes):  RWF=     10 Int=      0 D2E=      0 Chk=      2 Scr=      1
 Normal termination of Gaussian 16 at Mon Mar  7 19:37:18 2022.
