 Entering Gaussian System, Link 0=/opt/gaussian/g16/sse4/g16/g16
 Initial command:
 /opt/gaussian/g16/sse4/g16/l1.exe "/scratch/1549345/Gau-1126.inp" -scrdir="/scratch/1549345/"
 Entering Link 1 = /opt/gaussian/g16/sse4/g16/l1.exe PID=      1131.
  
 Copyright (c) 1988,1990,1992,1993,1995,1998,2003,2009,2016,
            Gaussian, Inc.  All Rights Reserved.
  
 This is part of the Gaussian(R) 16 program.  It is based on
 the Gaussian(R) 09 system (copyright 2009, Gaussian, Inc.),
 the Gaussian(R) 03 system (copyright 2003, Gaussian, Inc.),
 the Gaussian(R) 98 system (copyright 1998, Gaussian, Inc.),
 the Gaussian(R) 94 system (copyright 1995, Gaussian, Inc.),
 the Gaussian 92(TM) system (copyright 1992, Gaussian, Inc.),
 the Gaussian 90(TM) system (copyright 1990, Gaussian, Inc.),
 the Gaussian 88(TM) system (copyright 1988, Gaussian, Inc.),
 the Gaussian 86(TM) system (copyright 1986, Carnegie Mellon
 University), and the Gaussian 82(TM) system (copyright 1983,
 Carnegie Mellon University). Gaussian is a federally registered
 trademark of Gaussian, Inc.
  
 This software contains proprietary and confidential information,
 including trade secrets, belonging to Gaussian, Inc.
  
 This software is provided under written license and may be
 used, copied, transmitted, or stored only in accord with that
 written license.
  
 The following legend is applicable only to US Government
 contracts under FAR:
  
                    RESTRICTED RIGHTS LEGEND
  
 Use, reproduction and disclosure by the US Government is
 subject to restrictions as set forth in subparagraphs (a)
 and (c) of the Commercial Computer Software - Restricted
 Rights clause in FAR 52.227-19.
  
 Gaussian, Inc.
 340 Quinnipiac St., Bldg. 40, Wallingford CT 06492
  
  
 ---------------------------------------------------------------
 Warning -- This program may not be used in any manner that
 competes with the business of Gaussian, Inc. or will provide
 assistance to any competitor of Gaussian, Inc.  The licensee
 of this program is prohibited from giving any competitor of
 Gaussian, Inc. access to this program.  By using this program,
 the user acknowledges that Gaussian, Inc. is engaged in the
 business of creating and licensing software in the field of
 computational chemistry and represents and warrants to the
 licensee that it is not a competitor of Gaussian, Inc. and that
 it will not use this program in any manner prohibited above.
 ---------------------------------------------------------------
  

 Cite this work as:
 Gaussian 16, Revision A.03,
 M. J. Frisch, G. W. Trucks, H. B. Schlegel, G. E. Scuseria, 
 M. A. Robb, J. R. Cheeseman, G. Scalmani, V. Barone, 
 G. A. Petersson, H. Nakatsuji, X. Li, M. Caricato, A. V. Marenich, 
 J. Bloino, B. G. Janesko, R. Gomperts, B. Mennucci, H. P. Hratchian, 
 J. V. Ortiz, A. F. Izmaylov, J. L. Sonnenberg, D. Williams-Young, 
 F. Ding, F. Lipparini, F. Egidi, J. Goings, B. Peng, A. Petrone, 
 T. Henderson, D. Ranasinghe, V. G. Zakrzewski, J. Gao, N. Rega, 
 G. Zheng, W. Liang, M. Hada, M. Ehara, K. Toyota, R. Fukuda, 
 J. Hasegawa, M. Ishida, T. Nakajima, Y. Honda, O. Kitao, H. Nakai, 
 T. Vreven, K. Throssell, J. A. Montgomery, Jr., J. E. Peralta, 
 F. Ogliaro, M. J. Bearpark, J. J. Heyd, E. N. Brothers, K. N. Kudin, 
 V. N. Staroverov, T. A. Keith, R. Kobayashi, J. Normand, 
 K. Raghavachari, A. P. Rendell, J. C. Burant, S. S. Iyengar, 
 J. Tomasi, M. Cossi, J. M. Millam, M. Klene, C. Adamo, R. Cammi, 
 J. W. Ochterski, R. L. Martin, K. Morokuma, O. Farkas, 
 J. B. Foresman, and D. J. Fox, Gaussian, Inc., Wallingford CT, 2016.
 
 ******************************************
 Gaussian 16:  ES64L-G16RevA.03 25-Dec-2016
                16-Dec-2021 
 ******************************************
 %chk=DFT_Ethanol_gaus.chk
 %nprocshared=4
 Will use up to    4 processors via shared memory.
 %mem=4GB
 -------------------------------------------------
 #p opt freq b3lyp/cc-pvdz geom=connectivity polar
 -------------------------------------------------
 1/18=20,19=15,26=3,38=1,57=2/1,3;
 2/9=110,12=2,17=6,18=5,40=1/2;
 3/5=16,11=2,25=1,30=1,71=1,74=-5/1,2,3;
 4//1;
 5/5=2,38=5,98=1/2;
 6/7=2,8=2,9=2,10=2,28=1/1;
 7//1,2,3,16;
 1/18=20,19=15,26=3/3(2);
 2/9=110/2;
 99//99;
 2/9=110/2;
 3/5=16,11=2,25=1,30=1,71=1,74=-5/1,2,3;
 4/5=5,16=3,69=1/1;
 5/5=2,38=5,98=1/2;
 7//1,2,3,16;
 1/18=20,19=15,26=3/3(-5);
 2/9=110/2;
 6/7=2,8=2,9=2,10=2,19=2,28=1/1;
 99/9=1/99;
 Leave Link    1 at Thu Dec 16 11:32:07 2021, MaxMem=   536870912 cpu:               0.1 elap:               0.0
 (Enter /opt/gaussian/g16/sse4/g16/l101.exe)
 -----------
 Ethanol.xyz
 -----------
 Symbolic Z-matrix:
 Charge =  0 Multiplicity = 1
 C                     1.0111    0.07708  -0.05953 
 C                     2.52569   0.07985  -0.0664 
 O                     3.00581   1.24365  -0.72365 
 H                     0.62516  -0.80571   0.4578 
 H                     0.61937   0.08556  -1.08199 
 H                     0.62645   0.97441   0.4362 
 H                     2.91751  -0.80185  -0.58251 
 H                     2.91316   0.08142   0.95654 
 H                     2.66453   1.22802  -1.63407 
 
 ITRead=  0  0  0  0  0  0  0  0  0
 MicOpt= -1 -1 -1 -1 -1 -1 -1 -1 -1
 NAtoms=      9 NQM=        9 NQMF=       0 NMMI=      0 NMMIF=      0
                NMic=       0 NMicF=      0.
                    Isotopes and Nuclear Properties:
 (Nuclear quadrupole moments (NQMom) in fm**2, nuclear magnetic moments (NMagM)
  in nuclear magnetons)

  Atom         1           2           3           4           5           6           7           8           9
 IAtWgt=          12          12          16           1           1           1           1           1           1
 AtmWgt=  12.0000000  12.0000000  15.9949146   1.0078250   1.0078250   1.0078250   1.0078250   1.0078250   1.0078250
 NucSpn=           0           0           0           1           1           1           1           1           1
 AtZEff=  -0.0000000  -0.0000000  -0.0000000  -0.0000000  -0.0000000  -0.0000000  -0.0000000  -0.0000000  -0.0000000
 NQMom=    0.0000000   0.0000000   0.0000000   0.0000000   0.0000000   0.0000000   0.0000000   0.0000000   0.0000000
 NMagM=    0.0000000   0.0000000   0.0000000   2.7928460   2.7928460   2.7928460   2.7928460   2.7928460   2.7928460
 AtZNuc=   6.0000000   6.0000000   8.0000000   1.0000000   1.0000000   1.0000000   1.0000000   1.0000000   1.0000000
 Leave Link  101 at Thu Dec 16 11:32:10 2021, MaxMem=   536870912 cpu:               0.9 elap:               0.2
 (Enter /opt/gaussian/g16/sse4/g16/l103.exe)

 GradGradGradGradGradGradGradGradGradGradGradGradGradGradGradGradGradGrad
 Berny optimization.
 Initialization pass.
                           ----------------------------
                           !    Initial Parameters    !
                           ! (Angstroms and Degrees)  !
 --------------------------                            --------------------------
 ! Name  Definition              Value          Derivative Info.                !
 --------------------------------------------------------------------------------
 ! R1    R(1,2)                  1.5146         estimate D2E/DX2                !
 ! R2    R(1,4)                  1.0936         estimate D2E/DX2                !
 ! R3    R(1,5)                  1.095          estimate D2E/DX2                !
 ! R4    R(1,6)                  1.0949         estimate D2E/DX2                !
 ! R5    R(2,3)                  1.4202         estimate D2E/DX2                !
 ! R6    R(2,7)                  1.0942         estimate D2E/DX2                !
 ! R7    R(2,8)                  1.0939         estimate D2E/DX2                !
 ! R8    R(3,9)                  0.9724         estimate D2E/DX2                !
 ! A1    A(2,1,4)              110.8875         estimate D2E/DX2                !
 ! A2    A(2,1,5)              110.7016         estimate D2E/DX2                !
 ! A3    A(2,1,6)              110.6003         estimate D2E/DX2                !
 ! A4    A(4,1,5)              108.7678         estimate D2E/DX2                !
 ! A5    A(4,1,6)              108.869          estimate D2E/DX2                !
 ! A6    A(5,1,6)              106.9023         estimate D2E/DX2                !
 ! A7    A(1,2,3)              109.9782         estimate D2E/DX2                !
 ! A8    A(1,2,7)              111.0233         estimate D2E/DX2                !
 ! A9    A(1,2,8)              110.4859         estimate D2E/DX2                !
 ! A10   A(3,2,7)              108.722          estimate D2E/DX2                !
 ! A11   A(3,2,8)              108.1712         estimate D2E/DX2                !
 ! A12   A(7,2,8)              108.3854         estimate D2E/DX2                !
 ! A13   A(2,3,9)              107.5458         estimate D2E/DX2                !
 ! D1    D(4,1,2,3)           -179.0862         estimate D2E/DX2                !
 ! D2    D(4,1,2,7)             60.5425         estimate D2E/DX2                !
 ! D3    D(4,1,2,8)            -59.7424         estimate D2E/DX2                !
 ! D4    D(5,1,2,3)             60.0936         estimate D2E/DX2                !
 ! D5    D(5,1,2,7)            -60.2777         estimate D2E/DX2                !
 ! D6    D(5,1,2,8)            179.4374         estimate D2E/DX2                !
 ! D7    D(6,1,2,3)            -58.2062         estimate D2E/DX2                !
 ! D8    D(6,1,2,7)           -178.5775         estimate D2E/DX2                !
 ! D9    D(6,1,2,8)             61.1376         estimate D2E/DX2                !
 ! D10   D(1,2,3,9)            -59.8749         estimate D2E/DX2                !
 ! D11   D(7,2,3,9)             61.8776         estimate D2E/DX2                !
 ! D12   D(8,2,3,9)            179.3775         estimate D2E/DX2                !
 --------------------------------------------------------------------------------
 Trust Radius=3.00D-01 FncErr=1.00D-07 GrdErr=1.00D-06 EigMax=2.50D+02 EigMin=1.00D-04
 Number of steps in this run=     43 maximum allowed number of steps=    100.
 GradGradGradGradGradGradGradGradGradGradGradGradGradGradGradGradGradGrad

 Leave Link  103 at Thu Dec 16 11:32:10 2021, MaxMem=   536870912 cpu:               0.0 elap:               0.0
 (Enter /opt/gaussian/g16/sse4/g16/l202.exe)
                          Input orientation:                          
 ---------------------------------------------------------------------
 Center     Atomic      Atomic             Coordinates (Angstroms)
 Number     Number       Type             X           Y           Z
 ---------------------------------------------------------------------
      1          6           0        1.011100    0.077080   -0.059530
      2          6           0        2.525690    0.079850   -0.066400
      3          8           0        3.005810    1.243650   -0.723650
      4          1           0        0.625160   -0.805710    0.457800
      5          1           0        0.619370    0.085560   -1.081990
      6          1           0        0.626450    0.974410    0.436200
      7          1           0        2.917510   -0.801850   -0.582510
      8          1           0        2.913160    0.081420    0.956540
      9          1           0        2.664530    1.228020   -1.634070
 ---------------------------------------------------------------------
                    Distance matrix (angstroms):
                    1          2          3          4          5
     1  C    0.000000
     2  C    1.514608   0.000000
     3  O    2.404331   1.420184   0.000000
     4  H    1.093571   2.161253   3.356068   0.000000
     5  H    1.094965   2.159980   2.676691   1.779143   0.000000
     6  H    1.094945   2.158693   2.660657   1.780252   1.759263
     7  H    2.163429   1.094206   2.052264   2.517365   2.513648
     8  H    2.156444   1.093865   2.045092   2.504134   3.068728
     9  H    2.556887   1.948117   0.972410   3.559636   2.406800
                    6          7          8          9
     6  H    0.000000
     7  H    3.072755   0.000000
     8  H    2.509428   1.774503   0.000000
     9  H    2.916180   2.300033   2.843900   0.000000
 Stoichiometry    C2H6O
 Framework group  C1[X(C2H6O)]
 Deg. of freedom    21
 Full point group                 C1      NOp   1
 Largest Abelian subgroup         C1      NOp   1
 Largest concise Abelian subgroup C1      NOp   1
                         Standard orientation:                         
 ---------------------------------------------------------------------
 Center     Atomic      Atomic             Coordinates (Angstroms)
 Number     Number       Type             X           Y           Z
 ---------------------------------------------------------------------
      1          6           0       -1.189013   -0.242578   -0.020188
      2          6           0        0.082495    0.577704    0.046466
      3          8           0        1.213414   -0.266431   -0.112846
      4          1           0       -2.070742    0.395723    0.084802
      5          1           0       -1.204425   -0.997807    0.772491
      6          1           0       -1.251755   -0.779289   -0.972506
      7          1           0        0.164518    1.097414    1.005873
      8          1           0        0.098776    1.324289   -0.752839
      9          1           0        1.195425   -0.919638    0.607278
 ---------------------------------------------------------------------
 Rotational constants (GHZ):          33.3036258           9.5408688           8.3219240
 Leave Link  202 at Thu Dec 16 11:32:10 2021, MaxMem=   536870912 cpu:               0.0 elap:               0.0
 (Enter /opt/gaussian/g16/sse4/g16/l301.exe)
 Standard basis: CC-pVDZ (5D, 7F)
 Ernie: Thresh=  0.10000D-02 Tol=  0.10000D-05 Strict=F.
 Ernie:  6 primitive shells out of 96 were deleted.
 There are    75 symmetry adapted cartesian basis functions of A   symmetry.
 There are    72 symmetry adapted basis functions of A   symmetry.
    72 basis functions,   141 primitive gaussians,    75 cartesian basis functions
    13 alpha electrons       13 beta electrons
       nuclear repulsion energy        82.0240653680 Hartrees.
 IExCor=  402 DFT=T Ex+Corr=B3LYP ExCW=0 ScaHFX=  0.200000
 ScaDFX=  0.800000  0.720000  1.000000  0.810000 ScalE2=  1.000000  1.000000
 IRadAn=      5 IRanWt=     -1 IRanGd=            0 ICorTp=0 IEmpDi=  4
 NAtoms=    9 NActive=    9 NUniq=    9 SFac= 1.00D+00 NAtFMM=   60 NAOKFM=F Big=F
 Integral buffers will be    131072 words long.
 Raffenetti 2 integral format.
 Two-electron integral symmetry is turned on.
 Leave Link  301 at Thu Dec 16 11:32:10 2021, MaxMem=   536870912 cpu:               0.2 elap:               0.1
 (Enter /opt/gaussian/g16/sse4/g16/l302.exe)
 NPDir=0 NMtPBC=     1 NCelOv=     1 NCel=       1 NClECP=     1 NCelD=      1
         NCelK=      1 NCelE2=     1 NClLst=     1 CellRange=     0.0.
 One-electron integrals computed using PRISM.
 One-electron integral symmetry used in STVInt
 NBasis=    72 RedAO= T EigKep=  6.42D-03  NBF=    72
 NBsUse=    72 1.00D-06 EigRej= -1.00D+00 NBFU=    72
 Precomputing XC quadrature grid using
 IXCGrd= 4 IRadAn=           5 IRanWt=          -1 IRanGd=           0 AccXCQ= 0.00D+00.
 Generated NRdTot=       0 NPtTot=           0 NUsed=           0 NTot=          32
 NSgBfM=    75    75    75    75    75 MxSgAt=     9 MxSgA2=     9.
 Leave Link  302 at Thu Dec 16 11:32:11 2021, MaxMem=   536870912 cpu:               0.7 elap:               0.2
 (Enter /opt/gaussian/g16/sse4/g16/l303.exe)
 DipDrv:  MaxL=1.
 Leave Link  303 at Thu Dec 16 11:32:12 2021, MaxMem=   536870912 cpu:               0.1 elap:               0.0
 (Enter /opt/gaussian/g16/sse4/g16/l401.exe)
 ExpMin= 1.22D-01 ExpMax= 1.17D+04 ExpMxC= 4.01D+02 IAcc=3 IRadAn=         5 AccDes= 0.00D+00
 Harris functional with IExCor=  402 and IRadAn=       5 diagonalized for initial guess.
 HarFok:  IExCor=  402 AccDes= 0.00D+00 IRadAn=         5 IDoV= 1 UseB2=F ITyADJ=14
 ICtDFT=  3500011 ScaDFX=  1.000000  1.000000  1.000000  1.000000
 FoFCou: FMM=F IPFlag=           0 FMFlag=      100000 FMFlg1=           0
         NFxFlg=           0 DoJE=T BraDBF=F KetDBF=T FulRan=T
         wScrn=  0.000000 ICntrl=       500 IOpCl=  0 I1Cent=   200000004 NGrid=           0
         NMat0=    1 NMatS0=      1 NMatT0=    0 NMatD0=    1 NMtDS0=    0 NMtDT0=    0
 Petite list used in FoFCou.
 Harris En= -155.079477017859    
 JPrj=0 DoOrth=F DoCkMO=F.
 Leave Link  401 at Thu Dec 16 11:32:13 2021, MaxMem=   536870912 cpu:               2.4 elap:               0.6
 (Enter /opt/gaussian/g16/sse4/g16/l502.exe)
 Keep R1 ints in memory in canonical form, NReq=7041253.
 FoFCou: FMM=F IPFlag=           0 FMFlag=           0 FMFlg1=           0
         NFxFlg=           0 DoJE=F BraDBF=F KetDBF=F FulRan=T
         wScrn=  0.000000 ICntrl=       600 IOpCl=  0 I1Cent=           0 NGrid=           0
         NMat0=    1 NMatS0=   2628 NMatT0=    0 NMatD0=    1 NMtDS0=    0 NMtDT0=    0
 Symmetry not used in FoFCou.
 Two-electron integral symmetry not used.
 Closed shell SCF:
 Using DIIS extrapolation, IDIIS=  1040.
 NGot=   536870912 LenX=   533403697 LenY=   533397631
 Requested convergence on RMS density matrix=1.00D-08 within 128 cycles.
 Requested convergence on MAX density matrix=1.00D-06.
 Requested convergence on             energy=1.00D-06.
 No special actions if energy rises.
 Integral accuracy reduced to 1.0D-05 until final iterations.

 Cycle   1  Pass 0  IDiag  1:
 E= -154.915989450695    
 DIIS: error= 3.11D-02 at cycle   1 NSaved=   1.
 NSaved= 1 IEnMin= 1 EnMin= -154.915989450695     IErMin= 1 ErrMin= 3.11D-02
 ErrMax= 3.11D-02  0.00D+00 EMaxC= 1.00D-01 BMatC= 1.27D-01 BMatP= 1.27D-01
 IDIUse=3 WtCom= 6.89D-01 WtEn= 3.11D-01
 Coeff-Com:  0.100D+01
 Coeff-En:   0.100D+01
 Coeff:      0.100D+01
 Gap=     0.219 Goal=   None    Shift=    0.000
 GapD=    0.219 DampG=1.000 DampE=0.500 DampFc=0.5000 IDamp=-1.
 Damping current iteration by 5.00D-01
 RMSDP=1.01D-02 MaxDP=1.34D-01              OVMax= 1.65D-01

 Cycle   2  Pass 0  IDiag  1:
 E= -154.969312056093     Delta-E=       -0.053322605399 Rises=F Damp=T
 DIIS: error= 5.32D-03 at cycle   2 NSaved=   2.
 NSaved= 2 IEnMin= 2 EnMin= -154.969312056093     IErMin= 2 ErrMin= 5.32D-03
 ErrMax= 5.32D-03  0.00D+00 EMaxC= 1.00D-01 BMatC= 5.54D-03 BMatP= 1.27D-01
 IDIUse=3 WtCom= 9.47D-01 WtEn= 5.32D-02
 Coeff-Com:  0.117D+00 0.883D+00
 Coeff-En:   0.173D+00 0.827D+00
 Coeff:      0.120D+00 0.880D+00
 Gap=     0.317 Goal=   None    Shift=    0.000
 RMSDP=1.56D-03 MaxDP=1.83D-02 DE=-5.33D-02 OVMax= 9.52D-02

 Cycle   3  Pass 0  IDiag  1:
 E= -155.041229605527     Delta-E=       -0.071917549434 Rises=F Damp=F
 DIIS: error= 3.72D-03 at cycle   3 NSaved=   3.
 NSaved= 3 IEnMin= 3 EnMin= -155.041229605527     IErMin= 3 ErrMin= 3.72D-03
 ErrMax= 3.72D-03  0.00D+00 EMaxC= 1.00D-01 BMatC= 1.50D-03 BMatP= 5.54D-03
 IDIUse=3 WtCom= 9.63D-01 WtEn= 3.72D-02
 Coeff-Com:  0.283D-01 0.337D+00 0.635D+00
 Coeff-En:   0.000D+00 0.000D+00 0.100D+01
 Coeff:      0.273D-01 0.325D+00 0.648D+00
 Gap=     0.312 Goal=   None    Shift=    0.000
 RMSDP=5.71D-04 MaxDP=9.84D-03 DE=-7.19D-02 OVMax= 1.07D-02

 Cycle   4  Pass 0  IDiag  1:
 E= -155.042109644612     Delta-E=       -0.000880039085 Rises=F Damp=F
 DIIS: error= 1.73D-03 at cycle   4 NSaved=   4.
 NSaved= 4 IEnMin= 4 EnMin= -155.042109644612     IErMin= 4 ErrMin= 1.73D-03
 ErrMax= 1.73D-03  0.00D+00 EMaxC= 1.00D-01 BMatC= 4.44D-04 BMatP= 1.50D-03
 IDIUse=3 WtCom= 9.83D-01 WtEn= 1.73D-02
 Coeff-Com:  0.394D-02 0.725D-01 0.360D+00 0.564D+00
 Coeff-En:   0.000D+00 0.000D+00 0.229D+00 0.771D+00
 Coeff:      0.388D-02 0.713D-01 0.358D+00 0.567D+00
 Gap=     0.314 Goal=   None    Shift=    0.000
 RMSDP=2.25D-04 MaxDP=3.86D-03 DE=-8.80D-04 OVMax= 4.33D-03

 Cycle   5  Pass 0  IDiag  1:
 E= -155.042476391308     Delta-E=       -0.000366746696 Rises=F Damp=F
 DIIS: error= 2.56D-04 at cycle   5 NSaved=   5.
 NSaved= 5 IEnMin= 5 EnMin= -155.042476391308     IErMin= 5 ErrMin= 2.56D-04
 ErrMax= 2.56D-04  0.00D+00 EMaxC= 1.00D-01 BMatC= 6.98D-06 BMatP= 4.44D-04
 IDIUse=3 WtCom= 9.97D-01 WtEn= 2.56D-03
 Coeff-Com: -0.341D-03-0.200D-02 0.650D-01 0.174D+00 0.763D+00
 Coeff-En:   0.000D+00 0.000D+00 0.000D+00 0.000D+00 0.100D+01
 Coeff:     -0.340D-03-0.199D-02 0.648D-01 0.174D+00 0.764D+00
 Gap=     0.314 Goal=   None    Shift=    0.000
 RMSDP=2.76D-05 MaxDP=3.67D-04 DE=-3.67D-04 OVMax= 5.86D-04

 Cycle   6  Pass 0  IDiag  1:
 E= -155.042482199202     Delta-E=       -0.000005807894 Rises=F Damp=F
 DIIS: error= 4.51D-05 at cycle   6 NSaved=   6.
 NSaved= 6 IEnMin= 6 EnMin= -155.042482199202     IErMin= 6 ErrMin= 4.51D-05
 ErrMax= 4.51D-05  0.00D+00 EMaxC= 1.00D-01 BMatC= 2.27D-07 BMatP= 6.98D-06
 IDIUse=1 WtCom= 1.00D+00 WtEn= 0.00D+00
 Coeff-Com: -0.626D-04-0.187D-02 0.202D-01 0.598D-01 0.305D+00 0.617D+00
 Coeff:     -0.626D-04-0.187D-02 0.202D-01 0.598D-01 0.305D+00 0.617D+00
 Gap=     0.314 Goal=   None    Shift=    0.000
 RMSDP=6.29D-06 MaxDP=1.25D-04 DE=-5.81D-06 OVMax= 1.29D-04

 Initial convergence to 1.0D-05 achieved.  Increase integral accuracy.
 Cycle   7  Pass 1  IDiag  1:
 E= -155.042485612001     Delta-E=       -0.000003412798 Rises=F Damp=F
 DIIS: error= 1.32D-05 at cycle   1 NSaved=   1.
 NSaved= 1 IEnMin= 1 EnMin= -155.042485612001     IErMin= 1 ErrMin= 1.32D-05
 ErrMax= 1.32D-05  0.00D+00 EMaxC= 1.00D-01 BMatC= 1.82D-08 BMatP= 1.82D-08
 IDIUse=1 WtCom= 1.00D+00 WtEn= 0.00D+00
 Coeff-Com:  0.100D+01
 Coeff:      0.100D+01
 Gap=     0.314 Goal=   None    Shift=    0.000
 RMSDP=6.29D-06 MaxDP=1.25D-04 DE=-3.41D-06 OVMax= 6.22D-05

 Cycle   8  Pass 1  IDiag  1:
 E= -155.042485606397     Delta-E=        0.000000005603 Rises=F Damp=F
 DIIS: error= 1.54D-05 at cycle   2 NSaved=   2.
 NSaved= 2 IEnMin= 1 EnMin= -155.042485612001     IErMin= 1 ErrMin= 1.32D-05
 ErrMax= 1.54D-05  0.00D+00 EMaxC= 1.00D-01 BMatC= 2.42D-08 BMatP= 1.82D-08
 IDIUse=1 WtCom= 1.00D+00 WtEn= 0.00D+00
 Coeff-Com:  0.536D+00 0.464D+00
 Coeff:      0.536D+00 0.464D+00
 Gap=     0.314 Goal=   None    Shift=    0.000
 RMSDP=1.72D-06 MaxDP=3.35D-05 DE= 5.60D-09 OVMax= 3.47D-05

 Cycle   9  Pass 1  IDiag  1:
 E= -155.042485629815     Delta-E=       -0.000000023418 Rises=F Damp=F
 DIIS: error= 5.70D-07 at cycle   3 NSaved=   3.
 NSaved= 3 IEnMin= 3 EnMin= -155.042485629815     IErMin= 3 ErrMin= 5.70D-07
 ErrMax= 5.70D-07  0.00D+00 EMaxC= 1.00D-01 BMatC= 2.95D-11 BMatP= 1.82D-08
 IDIUse=1 WtCom= 1.00D+00 WtEn= 0.00D+00
 Coeff-Com:  0.112D+00 0.106D+00 0.781D+00
 Coeff:      0.112D+00 0.106D+00 0.781D+00
 Gap=     0.314 Goal=   None    Shift=    0.000
 RMSDP=8.53D-08 MaxDP=9.62D-07 DE=-2.34D-08 OVMax= 1.63D-06

 Cycle  10  Pass 1  IDiag  1:
 E= -155.042485629843     Delta-E=       -0.000000000027 Rises=F Damp=F
 DIIS: error= 1.26D-07 at cycle   4 NSaved=   4.
 NSaved= 4 IEnMin= 4 EnMin= -155.042485629843     IErMin= 4 ErrMin= 1.26D-07
 ErrMax= 1.26D-07  0.00D+00 EMaxC= 1.00D-01 BMatC= 1.44D-12 BMatP= 2.95D-11
 IDIUse=1 WtCom= 1.00D+00 WtEn= 0.00D+00
 Coeff-Com: -0.867D-02-0.557D-02 0.163D+00 0.851D+00
 Coeff:     -0.867D-02-0.557D-02 0.163D+00 0.851D+00
 Gap=     0.314 Goal=   None    Shift=    0.000
 RMSDP=1.89D-08 MaxDP=2.48D-07 DE=-2.74D-11 OVMax= 3.69D-07

 Cycle  11  Pass 1  IDiag  1:
 E= -155.042485629845     Delta-E=       -0.000000000002 Rises=F Damp=F
 DIIS: error= 2.24D-08 at cycle   5 NSaved=   5.
 NSaved= 5 IEnMin= 5 EnMin= -155.042485629845     IErMin= 5 ErrMin= 2.24D-08
 ErrMax= 2.24D-08  0.00D+00 EMaxC= 1.00D-01 BMatC= 8.18D-14 BMatP= 1.44D-12
 IDIUse=1 WtCom= 1.00D+00 WtEn= 0.00D+00
 Coeff-Com: -0.430D-02-0.305D-02 0.552D-01 0.340D+00 0.612D+00
 Coeff:     -0.430D-02-0.305D-02 0.552D-01 0.340D+00 0.612D+00
 Gap=     0.314 Goal=   None    Shift=    0.000
 RMSDP=4.89D-09 MaxDP=8.02D-08 DE=-2.07D-12 OVMax= 1.03D-07

 SCF Done:  E(RB3LYP) =  -155.042485630     A.U. after   11 cycles
            NFock= 11  Conv=0.49D-08     -V/T= 2.0066
 KE= 1.540326907277D+02 PE=-5.263188083685D+02 EE= 1.352195666429D+02
 Leave Link  502 at Thu Dec 16 11:32:18 2021, MaxMem=   536870912 cpu:              17.9 elap:               4.9
 (Enter /opt/gaussian/g16/sse4/g16/l601.exe)
 Copying SCF densities to generalized density rwf, IOpCl= 0 IROHF=0.

 **********************************************************************

            Population analysis using the SCF density.

 **********************************************************************

 Orbital symmetries:
       Occupied  (A) (A) (A) (A) (A) (A) (A) (A) (A) (A) (A) (A)
                 (A)
       Virtual   (A) (A) (A) (A) (A) (A) (A) (A) (A) (A) (A) (A)
                 (A) (A) (A) (A) (A) (A) (A) (A) (A) (A) (A) (A)
                 (A) (A) (A) (A) (A) (A) (A) (A) (A) (A) (A) (A)
                 (A) (A) (A) (A) (A) (A) (A) (A) (A) (A) (A) (A)
                 (A) (A) (A) (A) (A) (A) (A) (A) (A) (A) (A)
 The electronic state is 1-A.
 Alpha  occ. eigenvalues --  -19.12604 -10.22645 -10.17836  -1.01015  -0.74544
 Alpha  occ. eigenvalues --   -0.62067  -0.49628  -0.45168  -0.42794  -0.38079
 Alpha  occ. eigenvalues --   -0.36756  -0.31833  -0.26187
 Alpha virt. eigenvalues --    0.05185   0.08935   0.10842   0.12366   0.13606
 Alpha virt. eigenvalues --    0.15779   0.20862   0.23571   0.41428   0.43536
 Alpha virt. eigenvalues --    0.46968   0.50016   0.54151   0.57406   0.61351
 Alpha virt. eigenvalues --    0.65057   0.65537   0.66035   0.66424   0.69446
 Alpha virt. eigenvalues --    0.88136   0.90027   0.95291   1.01598   1.06311
 Alpha virt. eigenvalues --    1.13137   1.21116   1.25271   1.32556   1.39388
 Alpha virt. eigenvalues --    1.42381   1.48720   1.57445   1.59767   1.62146
 Alpha virt. eigenvalues --    1.65255   1.65909   1.67228   1.69871   1.76634
 Alpha virt. eigenvalues --    1.80670   1.87409   1.96798   1.98680   2.04650
 Alpha virt. eigenvalues --    2.10146   2.20170   2.20932   2.23607   2.41693
 Alpha virt. eigenvalues --    2.43137   2.49531   2.53417   2.56887   2.94529
 Alpha virt. eigenvalues --    3.02283   3.07662   3.23539   3.68369
          Condensed to atoms (all electrons):
               1          2          3          4          5          6
     1  C    4.592275   0.450579  -0.048342   0.347174   0.383039   0.380960
     2  C    0.450579   4.416250   0.361798  -0.009254  -0.022871  -0.021296
     3  O   -0.048342   0.361798   7.665265   0.005184  -0.001577   0.006034
     4  H    0.347174  -0.009254   0.005184   0.697520  -0.025357  -0.023264
     5  H    0.383039  -0.022871  -0.001577  -0.025357   0.692678  -0.037432
     6  H    0.380960  -0.021296   0.006034  -0.023264  -0.037432   0.671371
     7  H   -0.036453   0.374752  -0.032306   0.001162  -0.012893   0.011310
     8  H   -0.026000   0.379331  -0.022685  -0.002231   0.009460  -0.012290
     9  H   -0.002960  -0.053338   0.346676  -0.000338   0.008077  -0.001613
               7          8          9
     1  C   -0.036453  -0.026000  -0.002960
     2  C    0.374752   0.379331  -0.053338
     3  O   -0.032306  -0.022685   0.346676
     4  H    0.001162  -0.002231  -0.000338
     5  H   -0.012893   0.009460   0.008077
     6  H    0.011310  -0.012290  -0.001613
     7  H    0.756117  -0.051403  -0.008185
     8  H   -0.051403   0.695020   0.009630
     9  H   -0.008185   0.009630   0.567356
 Mulliken charges:
               1
     1  C   -0.040271
     2  C    0.124050
     3  O   -0.280046
     4  H    0.009405
     5  H    0.006876
     6  H    0.026220
     7  H   -0.002100
     8  H    0.021168
     9  H    0.134696
 Sum of Mulliken charges =  -0.00000
 Mulliken charges with hydrogens summed into heavy atoms:
               1
     1  C    0.002230
     2  C    0.143119
     3  O   -0.145349
 Electronic spatial extent (au):  <R**2>=            191.2791
 Charge=             -0.0000 electrons
 Dipole moment (field-independent basis, Debye):
    X=             -1.0269    Y=             -0.1964    Z=              1.0964  Tot=              1.5149
 Quadrupole moment (field-independent basis, Debye-Ang):
   XX=            -22.0506   YY=            -18.3986   ZZ=            -19.0571
   XY=             -0.9439   XZ=              1.6827   YZ=             -1.4070
 Traceless Quadrupole moment (field-independent basis, Debye-Ang):
   XX=             -2.2152   YY=              1.4368   ZZ=              0.7783
   XY=             -0.9439   XZ=              1.6827   YZ=             -1.4070
 Octapole moment (field-independent basis, Debye-Ang**2):
  XXX=              3.1708  YYY=             -2.4186  ZZZ=              0.1652  XYY=              3.4655
  XXY=             -1.1585  XXZ=              1.9280  XZZ=              2.6513  YZZ=             -0.9596
  YYZ=              0.7330  XYZ=             -1.5918
 Hexadecapole moment (field-independent basis, Debye-Ang**3):
 XXXX=           -155.5229 YYYY=            -56.5356 ZZZZ=            -33.7385 XXXY=             -6.1853
 XXXZ=              2.4423 YYYX=             -4.1821 YYYZ=             -2.3852 ZZZX=              1.2208
 ZZZY=             -1.0431 XXYY=            -32.5521 XXZZ=            -30.4838 YYZZ=            -13.7661
 XXYZ=             -1.8210 YYXZ=              1.2596 ZZXY=             -0.8336
 N-N= 8.202406536796D+01 E-N=-5.263188105649D+02  KE= 1.540326907277D+02
 No NMR shielding tensors so no spin-rotation constants.
 Leave Link  601 at Thu Dec 16 11:32:19 2021, MaxMem=   536870912 cpu:               0.7 elap:               0.2
 (Enter /opt/gaussian/g16/sse4/g16/l701.exe)
 ... and contract with generalized density number  0.
 Compute integral first derivatives.
 Leave Link  701 at Thu Dec 16 11:32:19 2021, MaxMem=   536870912 cpu:               0.5 elap:               0.1
 (Enter /opt/gaussian/g16/sse4/g16/l702.exe)
 L702 exits ... SP integral derivatives will be done elsewhere.
 Leave Link  702 at Thu Dec 16 11:32:19 2021, MaxMem=   536870912 cpu:               0.1 elap:               0.0
 (Enter /opt/gaussian/g16/sse4/g16/l703.exe)
 Integral derivatives from FoFJK, PRISM(SPDF).
 Compute integral first derivatives, UseDBF=F ICtDFT=           0.
 Calling FoFJK, ICntrl=      2127 FMM=F ISym2X=0 I1Cent= 0 IOpClX= 0 NMat=1 NMatS=1 NMatT=0.
 FoFJK:  IHMeth= 1 ICntrl=    2127 DoSepK=F KAlg= 0 I1Cent=           0 FoldK=F
 IRaf=         0 NMat=       1 IRICut=       1 DoRegI=T DoRafI=F ISym2E= 0 IDoP0=0 IntGTp=1.
 FoFCou: FMM=F IPFlag=           0 FMFlag=      100000 FMFlg1=         800
         NFxFlg=           0 DoJE=F BraDBF=F KetDBF=F FulRan=T
         wScrn=  0.000000 ICntrl=      2127 IOpCl=  0 I1Cent=           0 NGrid=           0
         NMat0=    1 NMatS0=      1 NMatT0=    0 NMatD0=    1 NMtDS0=    0 NMtDT0=    0
 Symmetry not used in FoFCou.
 Leave Link  703 at Thu Dec 16 11:32:21 2021, MaxMem=   536870912 cpu:               5.1 elap:               1.3
 (Enter /opt/gaussian/g16/sse4/g16/l716.exe)
 Dipole        =-4.03999815D-01-7.72711192D-02 4.31339491D-01
 ***** Axes restored to original set *****
 -------------------------------------------------------------------
 Center     Atomic                   Forces (Hartrees/Bohr)
 Number     Number              X              Y              Z
 -------------------------------------------------------------------
      1        6           0.000344026   -0.002288477    0.004079672
      2        6          -0.006365908    0.008406345   -0.012359515
      3        8           0.006460131    0.007286507    0.000549428
      4        1          -0.004591997   -0.004966266    0.002022998
      5        1          -0.002364464   -0.002298452   -0.005767560
      6        1          -0.000781558    0.003481763    0.003242637
      7        1           0.001756724   -0.011210798    0.000168495
      8        1           0.004388180    0.002639556    0.003496287
      9        1           0.001154865   -0.001050179    0.004567558
 -------------------------------------------------------------------
 Cartesian Forces:  Max     0.012359515 RMS     0.005051032
 Leave Link  716 at Thu Dec 16 11:32:21 2021, MaxMem=   536870912 cpu:               0.1 elap:               0.0
 (Enter /opt/gaussian/g16/sse4/g16/l103.exe)

 GradGradGradGradGradGradGradGradGradGradGradGradGradGradGradGradGradGrad
 Berny optimization.
 FormGI is forming the generalized inverse of G from B-inverse, IUseBI=4.
 Internal  Forces:  Max     0.011034670 RMS     0.004354113
 Search for a local minimum.
 Step number   1 out of a maximum of   43
 All quantities printed in internal units (Hartrees-Bohrs-Radians)
 RMS Force = .43541D-02 SwitMx=.10000D-02 MixMth= 1
 Mixed Optimization -- RFO/linear search
 Second derivative matrix not updated -- first step.
 ITU=  0
     Eigenvalues ---    0.00573   0.01425   0.05213   0.05649   0.05770
     Eigenvalues ---    0.05827   0.11505   0.13798   0.16000   0.16000
     Eigenvalues ---    0.16000   0.16000   0.22019   0.30892   0.34245
     Eigenvalues ---    0.34247   0.34331   0.34370   0.34403   0.42433
     Eigenvalues ---    0.52888
 RFO step:  Lambda=-3.32898988D-03 EMin= 5.72710188D-03
 Linear search not attempted -- first point.
 Iteration  1 RMS(Cart)=  0.04376109 RMS(Int)=  0.00107460
 Iteration  2 RMS(Cart)=  0.00094809 RMS(Int)=  0.00066553
 Iteration  3 RMS(Cart)=  0.00000054 RMS(Int)=  0.00066553
 ITry= 1 IFail=0 DXMaxC= 1.15D-01 DCOld= 1.00D+10 DXMaxT= 3.00D-01 DXLimC= 3.00D+00 Rises=F
 Variable       Old X    -DE/DX   Delta X   Delta X   Delta X     New X
                                 (Linear)    (Quad)   (Total)
    R1        2.86219   0.00742   0.00000   0.02377   0.02377   2.88596
    R2        2.06655   0.00659   0.00000   0.01896   0.01896   2.08551
    R3        2.06918   0.00621   0.00000   0.01797   0.01797   2.08715
    R4        2.06915   0.00460   0.00000   0.01329   0.01329   2.08244
    R5        2.68376   0.00532   0.00000   0.01243   0.01243   2.69619
    R6        2.06775   0.00958   0.00000   0.02765   0.02765   2.09540
    R7        2.06711   0.00483   0.00000   0.01391   0.01391   2.08102
    R8        1.83759  -0.00466   0.00000  -0.00877  -0.00877   1.82882
    A1        1.93535   0.00334   0.00000   0.01820   0.01823   1.95358
    A2        1.93211  -0.00014   0.00000  -0.00100  -0.00098   1.93112
    A3        1.93034  -0.00159   0.00000  -0.00738  -0.00736   1.92298
    A4        1.89836  -0.00224   0.00000  -0.01813  -0.01811   1.88025
    A5        1.90012  -0.00091   0.00000  -0.00536  -0.00533   1.89479
    A6        1.86580   0.00142   0.00000   0.01309   0.01310   1.87890
    A7        1.91948   0.01103   0.00000   0.05662   0.05570   1.97518
    A8        1.93772  -0.00471   0.00000  -0.01136  -0.01355   1.92417
    A9        1.92834   0.00009   0.00000  -0.01016  -0.00970   1.91864
   A10        1.89756   0.00151   0.00000   0.05218   0.05098   1.94854
   A11        1.88794  -0.00808   0.00000  -0.06467  -0.06391   1.82403
   A12        1.89168  -0.00008   0.00000  -0.02421  -0.02400   1.86769
   A13        1.87703  -0.00227   0.00000  -0.01389  -0.01389   1.86313
    D1       -3.12564   0.00288   0.00000   0.05449   0.05464  -3.07100
    D2        1.05667  -0.00323   0.00000  -0.04074  -0.04072   1.01594
    D3       -1.04270  -0.00009   0.00000   0.00389   0.00373  -1.03897
    D4        1.04883   0.00357   0.00000   0.06588   0.06603   1.11486
    D5       -1.05205  -0.00254   0.00000  -0.02935  -0.02933  -1.08138
    D6        3.13177   0.00060   0.00000   0.01528   0.01513  -3.13629
    D7       -1.01589   0.00290   0.00000   0.05492   0.05506  -0.96083
    D8       -3.11677  -0.00321   0.00000  -0.04031  -0.04030   3.12612
    D9        1.06705  -0.00007   0.00000   0.00432   0.00416   1.07121
   D10       -1.04501  -0.00017   0.00000  -0.02814  -0.02992  -1.07493
   D11        1.07997   0.00186   0.00000   0.02641   0.02825   1.10821
   D12        3.13073  -0.00188   0.00000  -0.00962  -0.00967   3.12106
         Item               Value     Threshold  Converged?
 Maximum Force            0.011035     0.000450     NO 
 RMS     Force            0.004354     0.000300     NO 
 Maximum Displacement     0.115414     0.001800     NO 
 RMS     Displacement     0.043388     0.001200     NO 
 Predicted change in Energy=-1.739559D-03
 Lowest energy point so far.  Saving SCF results.
 GradGradGradGradGradGradGradGradGradGradGradGradGradGradGradGradGradGrad

 Leave Link  103 at Thu Dec 16 11:32:21 2021, MaxMem=   536870912 cpu:               0.0 elap:               0.0
 (Enter /opt/gaussian/g16/sse4/g16/l202.exe)
                          Input orientation:                          
 ---------------------------------------------------------------------
 Center     Atomic      Atomic             Coordinates (Angstroms)
 Number     Number       Type             X           Y           Z
 ---------------------------------------------------------------------
      1          6           0        0.993040    0.065943   -0.055630
      2          6           0        2.519473    0.088375   -0.098007
      3          8           0        3.046809    1.263651   -0.711437
      4          1           0        0.608615   -0.815732    0.485491
      5          1           0        0.575410    0.041694   -1.077815
      6          1           0        0.613117    0.974370    0.439118
      7          1           0        2.903508   -0.832704   -0.581377
      8          1           0        2.923204    0.106957    0.926375
      9          1           0        2.725605    1.269877   -1.624328
 ---------------------------------------------------------------------
                    Distance matrix (angstroms):
                    1          2          3          4          5
     1  C    0.000000
     2  C    1.527185   0.000000
     3  O    2.466283   1.426763   0.000000
     4  H    1.103606   2.193002   3.420710   0.000000
     5  H    1.104475   2.177517   2.781227   1.783313   0.000000
     6  H    1.101979   2.169719   2.707456   1.790708   1.781120
     7  H    2.175744   1.108836   2.105268   2.530816   2.535954
     8  H    2.165998   1.101227   2.008892   2.530426   3.087583
     9  H    2.629078   1.941158   0.967771   3.644550   2.535833
                    6          7          8          9
     6  H    0.000000
     7  H    3.090763   0.000000
     8  H    2.515219   1.776701   0.000000
     9  H    2.967784   2.353772   2.810252   0.000000
 Stoichiometry    C2H6O
 Framework group  C1[X(C2H6O)]
 Deg. of freedom    21
 Full point group                 C1      NOp   1
 RotChk:  IX=0 Diff= 5.51D-02
 Largest Abelian subgroup         C1      NOp   1
 Largest concise Abelian subgroup C1      NOp   1
                         Standard orientation:                         
 ---------------------------------------------------------------------
 Center     Atomic      Atomic             Coordinates (Angstroms)
 Number     Number       Type             X           Y           Z
 ---------------------------------------------------------------------
      1          6           0       -1.219475   -0.237256   -0.021438
      2          6           0        0.084490    0.554687    0.047801
      3          8           0        1.245176   -0.260263   -0.108135
      4          1           0       -2.104316    0.420310    0.029651
      5          1           0       -1.284512   -0.954345    0.816068
      6          1           0       -1.264630   -0.813929   -0.959397
      7          1           0        0.123981    1.147812    0.983835
      8          1           0        0.134618    1.269168   -0.788684
      9          1           0        1.243364   -0.891495    0.625435
 ---------------------------------------------------------------------
 Rotational constants (GHZ):          34.2646045           9.0830603           8.0408495
 Leave Link  202 at Thu Dec 16 11:32:21 2021, MaxMem=   536870912 cpu:               0.0 elap:               0.0
 (Enter /opt/gaussian/g16/sse4/g16/l301.exe)
 Standard basis: CC-pVDZ (5D, 7F)
 Ernie: Thresh=  0.10000D-02 Tol=  0.10000D-05 Strict=F.
 Ernie:  6 primitive shells out of 96 were deleted.
 There are    75 symmetry adapted cartesian basis functions of A   symmetry.
 There are    72 symmetry adapted basis functions of A   symmetry.
    72 basis functions,   141 primitive gaussians,    75 cartesian basis functions
    13 alpha electrons       13 beta electrons
       nuclear repulsion energy        81.2218542538 Hartrees.
 IExCor=  402 DFT=T Ex+Corr=B3LYP ExCW=0 ScaHFX=  0.200000
 ScaDFX=  0.800000  0.720000  1.000000  0.810000 ScalE2=  1.000000  1.000000
 IRadAn=      5 IRanWt=     -1 IRanGd=            0 ICorTp=0 IEmpDi=  4
 NAtoms=    9 NActive=    9 NUniq=    9 SFac= 1.00D+00 NAtFMM=   60 NAOKFM=F Big=F
 Integral buffers will be    131072 words long.
 Raffenetti 2 integral format.
 Two-electron integral symmetry is turned on.
 Leave Link  301 at Thu Dec 16 11:32:22 2021, MaxMem=   536870912 cpu:               0.1 elap:               0.1
 (Enter /opt/gaussian/g16/sse4/g16/l302.exe)
 NPDir=0 NMtPBC=     1 NCelOv=     1 NCel=       1 NClECP=     1 NCelD=      1
         NCelK=      1 NCelE2=     1 NClLst=     1 CellRange=     0.0.
 One-electron integrals computed using PRISM.
 One-electron integral symmetry used in STVInt
 NBasis=    72 RedAO= T EigKep=  6.61D-03  NBF=    72
 NBsUse=    72 1.00D-06 EigRej= -1.00D+00 NBFU=    72
 Precomputing XC quadrature grid using
 IXCGrd= 4 IRadAn=           5 IRanWt=          -1 IRanGd=           0 AccXCQ= 0.00D+00.
 Generated NRdTot=       0 NPtTot=           0 NUsed=           0 NTot=          32
 NSgBfM=    75    75    75    75    75 MxSgAt=     9 MxSgA2=     9.
 Leave Link  302 at Thu Dec 16 11:32:22 2021, MaxMem=   536870912 cpu:               0.7 elap:               0.2
 (Enter /opt/gaussian/g16/sse4/g16/l303.exe)
 DipDrv:  MaxL=1.
 Leave Link  303 at Thu Dec 16 11:32:22 2021, MaxMem=   536870912 cpu:               0.1 elap:               0.0
 (Enter /opt/gaussian/g16/sse4/g16/l401.exe)
 Initial guess from the checkpoint file:  "DFT_Ethanol_gaus.chk"
 B after Tr=     0.000000    0.000000    0.000000
         Rot=    0.999897    0.013916    0.003442    0.000419 Ang=   1.64 deg.
 Guess basis will be translated and rotated to current coordinates.
 JPrj=2 DoOrth=T DoCkMO=T.
 Generating alternative initial guess.
 ExpMin= 1.22D-01 ExpMax= 1.17D+04 ExpMxC= 4.01D+02 IAcc=2 IRadAn=         4 AccDes= 0.00D+00
 Harris functional with IExCor=  402 and IRadAn=       4 diagonalized for initial guess.
 HarFok:  IExCor=  402 AccDes= 0.00D+00 IRadAn=         4 IDoV= 1 UseB2=F ITyADJ=14
 ICtDFT=  3500011 ScaDFX=  1.000000  1.000000  1.000000  1.000000
 FoFCou: FMM=F IPFlag=           0 FMFlag=      100000 FMFlg1=           0
         NFxFlg=           0 DoJE=T BraDBF=F KetDBF=T FulRan=T
         wScrn=  0.000000 ICntrl=       500 IOpCl=  0 I1Cent=   200000004 NGrid=           0
         NMat0=    1 NMatS0=      1 NMatT0=    0 NMatD0=    1 NMtDS0=    0 NMtDT0=    0
 Petite list used in FoFCou.
 Harris En= -155.076486213414    
 Leave Link  401 at Thu Dec 16 11:32:23 2021, MaxMem=   536870912 cpu:               1.7 elap:               0.4
 (Enter /opt/gaussian/g16/sse4/g16/l502.exe)
 Keep R1 ints in memory in canonical form, NReq=7041253.
 FoFCou: FMM=F IPFlag=           0 FMFlag=           0 FMFlg1=           0
         NFxFlg=           0 DoJE=F BraDBF=F KetDBF=F FulRan=T
         wScrn=  0.000000 ICntrl=       600 IOpCl=  0 I1Cent=           0 NGrid=           0
         NMat0=    1 NMatS0=   2628 NMatT0=    0 NMatD0=    1 NMtDS0=    0 NMtDT0=    0
 Symmetry not used in FoFCou.
 Two-electron integral symmetry not used.
 Closed shell SCF:
 Using DIIS extrapolation, IDIIS=  1040.
 NGot=   536870912 LenX=   533403697 LenY=   533397631
 Requested convergence on RMS density matrix=1.00D-08 within 128 cycles.
 Requested convergence on MAX density matrix=1.00D-06.
 Requested convergence on             energy=1.00D-06.
 No special actions if energy rises.
 Integral accuracy reduced to 1.0D-05 until final iterations.

 Cycle   1  Pass 0  IDiag  1:
 E= -155.042671898312    
 DIIS: error= 2.07D-03 at cycle   1 NSaved=   1.
 NSaved= 1 IEnMin= 1 EnMin= -155.042671898312     IErMin= 1 ErrMin= 2.07D-03
 ErrMax= 2.07D-03  0.00D+00 EMaxC= 1.00D-01 BMatC= 7.10D-04 BMatP= 7.10D-04
 IDIUse=3 WtCom= 9.79D-01 WtEn= 2.07D-02
 Coeff-Com:  0.100D+01
 Coeff-En:   0.100D+01
 Coeff:      0.100D+01
 Gap=     0.651 Goal=   None    Shift=    0.000
 GapD=    0.651 DampG=2.000 DampE=1.000 DampFc=2.0000 IDamp=-1.
 RMSDP=7.08D-04 MaxDP=6.89D-03              OVMax= 1.06D-02

 Cycle   2  Pass 0  IDiag  1:
 E= -155.043826664720     Delta-E=       -0.001154766408 Rises=F Damp=F
 DIIS: error= 3.77D-04 at cycle   2 NSaved=   2.
 NSaved= 2 IEnMin= 2 EnMin= -155.043826664720     IErMin= 2 ErrMin= 3.77D-04
 ErrMax= 3.77D-04  0.00D+00 EMaxC= 1.00D-01 BMatC= 1.39D-05 BMatP= 7.10D-04
 IDIUse=3 WtCom= 9.96D-01 WtEn= 3.77D-03
 Coeff-Com: -0.320D-01 0.103D+01
 Coeff-En:   0.000D+00 0.100D+01
 Coeff:     -0.319D-01 0.103D+01
 Gap=     0.318 Goal=   None    Shift=    0.000
 RMSDP=1.04D-04 MaxDP=1.33D-03 DE=-1.15D-03 OVMax= 1.95D-03

 Cycle   3  Pass 0  IDiag  1:
 E= -155.043831973300     Delta-E=       -0.000005308580 Rises=F Damp=F
 DIIS: error= 4.46D-04 at cycle   3 NSaved=   3.
 NSaved= 3 IEnMin= 3 EnMin= -155.043831973300     IErMin= 2 ErrMin= 3.77D-04
 ErrMax= 4.46D-04  0.00D+00 EMaxC= 1.00D-01 BMatC= 1.37D-05 BMatP= 1.39D-05
 IDIUse=3 WtCom= 9.96D-01 WtEn= 4.46D-03
 Coeff-Com: -0.332D-01 0.530D+00 0.504D+00
 Coeff-En:   0.000D+00 0.390D+00 0.610D+00
 Coeff:     -0.330D-01 0.529D+00 0.504D+00
 Gap=     0.318 Goal=   None    Shift=    0.000
 RMSDP=4.50D-05 MaxDP=7.66D-04 DE=-5.31D-06 OVMax= 9.63D-04

 Cycle   4  Pass 0  IDiag  1:
 E= -155.043845960218     Delta-E=       -0.000013986919 Rises=F Damp=F
 DIIS: error= 5.28D-05 at cycle   4 NSaved=   4.
 NSaved= 4 IEnMin= 4 EnMin= -155.043845960218     IErMin= 4 ErrMin= 5.28D-05
 ErrMax= 5.28D-05  0.00D+00 EMaxC= 1.00D-01 BMatC= 3.99D-07 BMatP= 1.37D-05
 IDIUse=1 WtCom= 1.00D+00 WtEn= 0.00D+00
 Coeff-Com: -0.983D-02 0.135D+00 0.191D+00 0.684D+00
 Coeff:     -0.983D-02 0.135D+00 0.191D+00 0.684D+00
 Gap=     0.318 Goal=   None    Shift=    0.000
 RMSDP=8.27D-06 MaxDP=1.80D-04 DE=-1.40D-05 OVMax= 1.51D-04

 Initial convergence to 1.0D-05 achieved.  Increase integral accuracy.
 Cycle   5  Pass 1  IDiag  1:
 E= -155.043847738124     Delta-E=       -0.000001777906 Rises=F Damp=F
 DIIS: error= 2.88D-05 at cycle   1 NSaved=   1.
 NSaved= 1 IEnMin= 1 EnMin= -155.043847738124     IErMin= 1 ErrMin= 2.88D-05
 ErrMax= 2.88D-05  0.00D+00 EMaxC= 1.00D-01 BMatC= 8.27D-08 BMatP= 8.27D-08
 IDIUse=1 WtCom= 1.00D+00 WtEn= 0.00D+00
 Coeff-Com:  0.100D+01
 Coeff:      0.100D+01
 Gap=     0.318 Goal=   None    Shift=    0.000
 RMSDP=8.27D-06 MaxDP=1.80D-04 DE=-1.78D-06 OVMax= 1.43D-04

 Cycle   6  Pass 1  IDiag  1:
 E= -155.043847665342     Delta-E=        0.000000072782 Rises=F Damp=F
 DIIS: error= 4.19D-05 at cycle   2 NSaved=   2.
 NSaved= 2 IEnMin= 1 EnMin= -155.043847738124     IErMin= 1 ErrMin= 2.88D-05
 ErrMax= 4.19D-05  0.00D+00 EMaxC= 1.00D-01 BMatC= 1.86D-07 BMatP= 8.27D-08
 IDIUse=1 WtCom= 1.00D+00 WtEn= 0.00D+00
 Coeff-Com:  0.600D+00 0.400D+00
 Coeff:      0.600D+00 0.400D+00
 Gap=     0.318 Goal=   None    Shift=    0.000
 RMSDP=4.25D-06 MaxDP=8.85D-05 DE= 7.28D-08 OVMax= 8.57D-05

 Cycle   7  Pass 1  IDiag  1:
 E= -155.043847797759     Delta-E=       -0.000000132417 Rises=F Damp=F
 DIIS: error= 2.24D-06 at cycle   3 NSaved=   3.
 NSaved= 3 IEnMin= 3 EnMin= -155.043847797759     IErMin= 3 ErrMin= 2.24D-06
 ErrMax= 2.24D-06  0.00D+00 EMaxC= 1.00D-01 BMatC= 4.35D-10 BMatP= 8.27D-08
 IDIUse=1 WtCom= 1.00D+00 WtEn= 0.00D+00
 Coeff-Com:  0.244D+00 0.171D+00 0.585D+00
 Coeff:      0.244D+00 0.171D+00 0.585D+00
 Gap=     0.318 Goal=   None    Shift=    0.000
 RMSDP=2.79D-07 MaxDP=4.78D-06 DE=-1.32D-07 OVMax= 6.57D-06

 Cycle   8  Pass 1  IDiag  1:
 E= -155.043847798178     Delta-E=       -0.000000000419 Rises=F Damp=F
 DIIS: error= 6.37D-07 at cycle   4 NSaved=   4.
 NSaved= 4 IEnMin= 4 EnMin= -155.043847798178     IErMin= 4 ErrMin= 6.37D-07
 ErrMax= 6.37D-07  0.00D+00 EMaxC= 1.00D-01 BMatC= 3.06D-11 BMatP= 4.35D-10
 IDIUse=1 WtCom= 1.00D+00 WtEn= 0.00D+00
 Coeff-Com:  0.373D-01 0.283D-01 0.230D+00 0.704D+00
 Coeff:      0.373D-01 0.283D-01 0.230D+00 0.704D+00
 Gap=     0.318 Goal=   None    Shift=    0.000
 RMSDP=8.09D-08 MaxDP=1.20D-06 DE=-4.19D-10 OVMax= 1.58D-06

 Cycle   9  Pass 1  IDiag  1:
 E= -155.043847798208     Delta-E=       -0.000000000030 Rises=F Damp=F
 DIIS: error= 1.23D-07 at cycle   5 NSaved=   5.
 NSaved= 5 IEnMin= 5 EnMin= -155.043847798208     IErMin= 5 ErrMin= 1.23D-07
 ErrMax= 1.23D-07  0.00D+00 EMaxC= 1.00D-01 BMatC= 1.97D-12 BMatP= 3.06D-11
 IDIUse=1 WtCom= 1.00D+00 WtEn= 0.00D+00
 Coeff-Com: -0.129D-01-0.823D-02 0.203D-01 0.245D+00 0.756D+00
 Coeff:     -0.129D-01-0.823D-02 0.203D-01 0.245D+00 0.756D+00
 Gap=     0.318 Goal=   None    Shift=    0.000
 RMSDP=1.86D-08 MaxDP=2.10D-07 DE=-2.98D-11 OVMax= 3.76D-07

 Cycle  10  Pass 1  IDiag  1:
 E= -155.043847798209     Delta-E=       -0.000000000001 Rises=F Damp=F
 DIIS: error= 7.94D-09 at cycle   6 NSaved=   6.
 NSaved= 6 IEnMin= 6 EnMin= -155.043847798209     IErMin= 6 ErrMin= 7.94D-09
 ErrMax= 7.94D-09  0.00D+00 EMaxC= 1.00D-01 BMatC= 5.17D-15 BMatP= 1.97D-12
 IDIUse=1 WtCom= 1.00D+00 WtEn= 0.00D+00
 Coeff-Com: -0.260D-02-0.171D-02 0.788D-03 0.338D-01 0.126D+00 0.844D+00
 Coeff:     -0.260D-02-0.171D-02 0.788D-03 0.338D-01 0.126D+00 0.844D+00
 Gap=     0.318 Goal=   None    Shift=    0.000
 RMSDP=1.40D-09 MaxDP=2.17D-08 DE=-5.12D-13 OVMax= 2.85D-08

 SCF Done:  E(RB3LYP) =  -155.043847798     A.U. after   10 cycles
            NFock= 10  Conv=0.14D-08     -V/T= 2.0072
 KE= 1.539377529737D+02 PE=-5.246279390881D+02 EE= 1.344244840624D+02
 Leave Link  502 at Thu Dec 16 11:32:27 2021, MaxMem=   536870912 cpu:              16.0 elap:               4.1
 (Enter /opt/gaussian/g16/sse4/g16/l701.exe)
 ... and contract with generalized density number  0.
 Compute integral first derivatives.
 Leave Link  701 at Thu Dec 16 11:32:27 2021, MaxMem=   536870912 cpu:               0.5 elap:               0.1
 (Enter /opt/gaussian/g16/sse4/g16/l702.exe)
 L702 exits ... SP integral derivatives will be done elsewhere.
 Leave Link  702 at Thu Dec 16 11:32:28 2021, MaxMem=   536870912 cpu:               0.1 elap:               0.0
 (Enter /opt/gaussian/g16/sse4/g16/l703.exe)
 Integral derivatives from FoFJK, PRISM(SPDF).
 Compute integral first derivatives, UseDBF=F ICtDFT=           0.
 Calling FoFJK, ICntrl=      2127 FMM=F ISym2X=0 I1Cent= 0 IOpClX= 0 NMat=1 NMatS=1 NMatT=0.
 FoFJK:  IHMeth= 1 ICntrl=    2127 DoSepK=F KAlg= 0 I1Cent=           0 FoldK=F
 IRaf=         0 NMat=       1 IRICut=       1 DoRegI=T DoRafI=F ISym2E= 0 IDoP0=0 IntGTp=1.
 FoFCou: FMM=F IPFlag=           0 FMFlag=      100000 FMFlg1=         800
         NFxFlg=           0 DoJE=F BraDBF=F KetDBF=F FulRan=T
         wScrn=  0.000000 ICntrl=      2127 IOpCl=  0 I1Cent=           0 NGrid=           0
         NMat0=    1 NMatS0=      1 NMatT0=    0 NMatD0=    1 NMtDS0=    0 NMtDT0=    0
 Symmetry not used in FoFCou.
 Leave Link  703 at Thu Dec 16 11:32:29 2021, MaxMem=   536870912 cpu:               5.3 elap:               1.3
 (Enter /opt/gaussian/g16/sse4/g16/l716.exe)
 Dipole        =-4.04061141D-01-8.58461073D-02 4.36819860D-01
 ***** Axes restored to original set *****
 -------------------------------------------------------------------
 Center     Atomic                   Forces (Hartrees/Bohr)
 Number     Number              X              Y              Z
 -------------------------------------------------------------------
      1        6           0.001092407    0.002095599   -0.001321225
      2        6           0.000581349    0.002696506    0.002393175
      3        8          -0.002489589   -0.003698307    0.000475160
      4        1           0.001135760    0.000088773   -0.000378944
      5        1          -0.000602328   -0.000550291   -0.000094081
      6        1          -0.000185617   -0.000171603    0.000164804
      7        1           0.000266003    0.000000699   -0.000710172
      8        1           0.000142325   -0.001358510    0.000874124
      9        1           0.000059691    0.000897134   -0.001402842
 -------------------------------------------------------------------
 Cartesian Forces:  Max     0.003698307 RMS     0.001346553
 Leave Link  716 at Thu Dec 16 11:32:29 2021, MaxMem=   536870912 cpu:               0.1 elap:               0.0
 (Enter /opt/gaussian/g16/sse4/g16/l103.exe)

 GradGradGradGradGradGradGradGradGradGradGradGradGradGradGradGradGradGrad
 Berny optimization.
 Using GEDIIS/GDIIS optimizer.
 FormGI is forming the generalized inverse of G from B-inverse, IUseBI=4.
 Internal  Forces:  Max     0.002806662 RMS     0.000997415
 Search for a local minimum.
 Step number   2 out of a maximum of   43
 All quantities printed in internal units (Hartrees-Bohrs-Radians)
 RMS Force = .99742D-03 SwitMx=.10000D-02 MixMth= 2
 Mixed Optimization -- En-DIIS/RFO-DIIS
 Update second derivatives using D2CorX and points    1    2
 DE= -1.36D-03 DEPred=-1.74D-03 R= 7.83D-01
 TightC=F SS=  1.41D+00  RLast= 1.76D-01 DXNew= 5.0454D-01 5.2759D-01
 Trust test= 7.83D-01 RLast= 1.76D-01 DXMaxT set to 5.05D-01
 ITU=  1  0
 Use linear search instead of GDIIS.
     Eigenvalues ---    0.00573   0.01425   0.05450   0.05571   0.05744
     Eigenvalues ---    0.05917   0.11843   0.13899   0.15947   0.16000
     Eigenvalues ---    0.16000   0.16638   0.23321   0.31286   0.32860
     Eigenvalues ---    0.34249   0.34274   0.34362   0.34565   0.43451
     Eigenvalues ---    0.53197
 RFO step:  Lambda=-8.51243833D-05 EMin= 5.73014673D-03
 Quartic linear search produced a step of -0.14530.
 Iteration  1 RMS(Cart)=  0.00615898 RMS(Int)=  0.00008670
 Iteration  2 RMS(Cart)=  0.00003173 RMS(Int)=  0.00008278
 Iteration  3 RMS(Cart)=  0.00000000 RMS(Int)=  0.00008278
 ITry= 1 IFail=0 DXMaxC= 1.73D-02 DCOld= 1.00D+10 DXMaxT= 5.05D-01 DXLimC= 3.00D+00 Rises=F
 Variable       Old X    -DE/DX   Delta X   Delta X   Delta X     New X
                                 (Linear)    (Quad)   (Total)
    R1        2.88596  -0.00151  -0.00345  -0.00006  -0.00351   2.88245
    R2        2.08551  -0.00065  -0.00276   0.00166  -0.00110   2.08441
    R3        2.08715   0.00033  -0.00261   0.00392   0.00131   2.08846
    R4        2.08244  -0.00000  -0.00193   0.00229   0.00036   2.08279
    R5        2.69619  -0.00281  -0.00181  -0.00350  -0.00530   2.69089
    R6        2.09540   0.00040  -0.00402   0.00577   0.00175   2.09715
    R7        2.08102   0.00084  -0.00202   0.00449   0.00247   2.08349
    R8        1.82882   0.00131   0.00127   0.00060   0.00187   1.83069
    A1        1.95358  -0.00179  -0.00265  -0.00863  -0.01127   1.94231
    A2        1.93112   0.00101   0.00014   0.00593   0.00605   1.93718
    A3        1.92298   0.00056   0.00107   0.00319   0.00424   1.92721
    A4        1.88025   0.00003   0.00263  -0.00573  -0.00310   1.87715
    A5        1.89479   0.00044   0.00078  -0.00004   0.00073   1.89552
    A6        1.87890  -0.00021  -0.00190   0.00554   0.00359   1.88249
    A7        1.97518  -0.00204  -0.00809   0.00151  -0.00649   1.96869
    A8        1.92417   0.00054   0.00197  -0.00475  -0.00252   1.92165
    A9        1.91864   0.00033   0.00141   0.00350   0.00485   1.92349
   A10        1.94854  -0.00001  -0.00741   0.00071  -0.00657   1.94196
   A11        1.82403   0.00169   0.00929   0.00446   0.01364   1.83768
   A12        1.86769  -0.00037   0.00349  -0.00522  -0.00174   1.86594
   A13        1.86313   0.00189   0.00202   0.00767   0.00969   1.87282
    D1       -3.07100  -0.00080  -0.00794  -0.00212  -0.01007  -3.08108
    D2        1.01594   0.00034   0.00592  -0.00045   0.00546   1.02140
    D3       -1.03897   0.00028  -0.00054   0.00669   0.00617  -1.03279
    D4        1.11486  -0.00032  -0.00959   0.00687  -0.00272   1.11214
    D5       -1.08138   0.00082   0.00426   0.00854   0.01281  -1.06857
    D6       -3.13629   0.00075  -0.00220   0.01568   0.01352  -3.12276
    D7       -0.96083  -0.00105  -0.00800  -0.00575  -0.01377  -0.97460
    D8        3.12612   0.00009   0.00586  -0.00407   0.00176   3.12788
    D9        1.07121   0.00002  -0.00060   0.00307   0.00247   1.07368
   D10       -1.07493   0.00043   0.00435   0.00388   0.00846  -1.06647
   D11        1.10821  -0.00046  -0.00410  -0.00074  -0.00508   1.10314
   D12        3.12106   0.00005   0.00141  -0.00404  -0.00263   3.11842
         Item               Value     Threshold  Converged?
 Maximum Force            0.002807     0.000450     NO 
 RMS     Force            0.000997     0.000300     NO 
 Maximum Displacement     0.017283     0.001800     NO 
 RMS     Displacement     0.006165     0.001200     NO 
 Predicted change in Energy=-8.059063D-05
 Lowest energy point so far.  Saving SCF results.
 GradGradGradGradGradGradGradGradGradGradGradGradGradGradGradGradGradGrad

 Leave Link  103 at Thu Dec 16 11:32:29 2021, MaxMem=   536870912 cpu:               0.0 elap:               0.0
 (Enter /opt/gaussian/g16/sse4/g16/l202.exe)
                          Input orientation:                          
 ---------------------------------------------------------------------
 Center     Atomic      Atomic             Coordinates (Angstroms)
 Number     Number       Type             X           Y           Z
 ---------------------------------------------------------------------
      1          6           0        0.994955    0.070890   -0.057648
      2          6           0        2.519764    0.089877   -0.092529
      3          8           0        3.042927    1.259611   -0.713556
      4          1           0        0.617761   -0.814050    0.482044
      5          1           0        0.575889    0.041537   -1.079858
      6          1           0        0.610357    0.976289    0.439452
      7          1           0        2.901602   -0.830386   -0.581294
      8          1           0        2.924085    0.099631    0.933149
      9          1           0        2.721441    1.269031   -1.627370
 ---------------------------------------------------------------------
                    Distance matrix (angstroms):
                    1          2          3          4          5
     1  C    0.000000
     2  C    1.525326   0.000000
     3  O    2.457125   1.423956   0.000000
     4  H    1.103024   2.182850   3.407486   0.000000
     5  H    1.105166   2.180781   2.775636   1.781382   0.000000
     6  H    1.102166   2.171304   2.706860   1.790860   1.784167
     7  H    2.172972   1.109764   2.098941   2.519303   2.533329
     8  H    2.168881   1.102536   2.017749   2.521396   3.093476
     9  H    2.623038   1.945974   0.968761   3.635152   2.531779
                    6          7          8          9
     6  H    0.000000
     7  H    3.091246   0.000000
     8  H    2.523014   1.777351   0.000000
     9  H    2.968860   2.352506   2.822201   0.000000
 Stoichiometry    C2H6O
 Framework group  C1[X(C2H6O)]
 Deg. of freedom    21
 Full point group                 C1      NOp   1
 RotChk:  IX=0 Diff= 1.21D-02
 Largest Abelian subgroup         C1      NOp   1
 Largest concise Abelian subgroup C1      NOp   1
                         Standard orientation:                         
 ---------------------------------------------------------------------
 Center     Atomic      Atomic             Coordinates (Angstroms)
 Number     Number       Type             X           Y           Z
 ---------------------------------------------------------------------
      1          6           0       -1.214774   -0.238970   -0.022115
      2          6           0        0.084866    0.556493    0.047117
      3          8           0        1.240738   -0.260451   -0.108489
      4          1           0       -2.093963    0.424284    0.039387
      5          1           0       -1.282402   -0.960292    0.812460
      6          1           0       -1.268156   -0.807100   -0.965062
      7          1           0        0.126697    1.137332    0.991814
      8          1           0        0.130126    1.284774   -0.779407
      9          1           0        1.241245   -0.900523    0.618702
 ---------------------------------------------------------------------
 Rotational constants (GHZ):          34.1007742           9.1421507           8.0777626
 Leave Link  202 at Thu Dec 16 11:32:30 2021, MaxMem=   536870912 cpu:               0.0 elap:               0.1
 (Enter /opt/gaussian/g16/sse4/g16/l301.exe)
 Standard basis: CC-pVDZ (5D, 7F)
 Ernie: Thresh=  0.10000D-02 Tol=  0.10000D-05 Strict=F.
 Ernie:  6 primitive shells out of 96 were deleted.
 There are    75 symmetry adapted cartesian basis functions of A   symmetry.
 There are    72 symmetry adapted basis functions of A   symmetry.
    72 basis functions,   141 primitive gaussians,    75 cartesian basis functions
    13 alpha electrons       13 beta electrons
       nuclear repulsion energy        81.3072077013 Hartrees.
 IExCor=  402 DFT=T Ex+Corr=B3LYP ExCW=0 ScaHFX=  0.200000
 ScaDFX=  0.800000  0.720000  1.000000  0.810000 ScalE2=  1.000000  1.000000
 IRadAn=      5 IRanWt=     -1 IRanGd=            0 ICorTp=0 IEmpDi=  4
 NAtoms=    9 NActive=    9 NUniq=    9 SFac= 1.00D+00 NAtFMM=   60 NAOKFM=F Big=F
 Integral buffers will be    131072 words long.
 Raffenetti 2 integral format.
 Two-electron integral symmetry is turned on.
 Leave Link  301 at Thu Dec 16 11:32:30 2021, MaxMem=   536870912 cpu:               0.2 elap:               0.1
 (Enter /opt/gaussian/g16/sse4/g16/l302.exe)
 NPDir=0 NMtPBC=     1 NCelOv=     1 NCel=       1 NClECP=     1 NCelD=      1
         NCelK=      1 NCelE2=     1 NClLst=     1 CellRange=     0.0.
 One-electron integrals computed using PRISM.
 One-electron integral symmetry used in STVInt
 NBasis=    72 RedAO= T EigKep=  6.58D-03  NBF=    72
 NBsUse=    72 1.00D-06 EigRej= -1.00D+00 NBFU=    72
 Precomputing XC quadrature grid using
 IXCGrd= 4 IRadAn=           5 IRanWt=          -1 IRanGd=           0 AccXCQ= 0.00D+00.
 Generated NRdTot=       0 NPtTot=           0 NUsed=           0 NTot=          32
 NSgBfM=    75    75    75    75    75 MxSgAt=     9 MxSgA2=     9.
 Leave Link  302 at Thu Dec 16 11:32:31 2021, MaxMem=   536870912 cpu:               0.7 elap:               0.2
 (Enter /opt/gaussian/g16/sse4/g16/l303.exe)
 DipDrv:  MaxL=1.
 Leave Link  303 at Thu Dec 16 11:32:31 2021, MaxMem=   536870912 cpu:               0.1 elap:               0.0
 (Enter /opt/gaussian/g16/sse4/g16/l401.exe)
 Initial guess from the checkpoint file:  "DFT_Ethanol_gaus.chk"
 B after Tr=    -0.000000   -0.000000   -0.000000
         Rot=    0.999995   -0.003241   -0.000400    0.000213 Ang=  -0.38 deg.
 Guess basis will be translated and rotated to current coordinates.
 JPrj=2 DoOrth=T DoCkMO=T.
 Leave Link  401 at Thu Dec 16 11:32:31 2021, MaxMem=   536870912 cpu:               0.4 elap:               0.1
 (Enter /opt/gaussian/g16/sse4/g16/l502.exe)
 Keep R1 ints in memory in canonical form, NReq=7041253.
 FoFCou: FMM=F IPFlag=           0 FMFlag=           0 FMFlg1=           0
         NFxFlg=           0 DoJE=F BraDBF=F KetDBF=F FulRan=T
         wScrn=  0.000000 ICntrl=       600 IOpCl=  0 I1Cent=           0 NGrid=           0
         NMat0=    1 NMatS0=   2628 NMatT0=    0 NMatD0=    1 NMtDS0=    0 NMtDT0=    0
 Symmetry not used in FoFCou.
 Two-electron integral symmetry not used.
 Closed shell SCF:
 Using DIIS extrapolation, IDIIS=  1040.
 NGot=   536870912 LenX=   533403697 LenY=   533397631
 Requested convergence on RMS density matrix=1.00D-08 within 128 cycles.
 Requested convergence on MAX density matrix=1.00D-06.
 Requested convergence on             energy=1.00D-06.
 No special actions if energy rises.

 Cycle   1  Pass 1  IDiag  1:
 E= -155.043903540921    
 DIIS: error= 3.10D-04 at cycle   1 NSaved=   1.
 NSaved= 1 IEnMin= 1 EnMin= -155.043903540921     IErMin= 1 ErrMin= 3.10D-04
 ErrMax= 3.10D-04  0.00D+00 EMaxC= 1.00D-01 BMatC= 2.03D-05 BMatP= 2.03D-05
 IDIUse=3 WtCom= 9.97D-01 WtEn= 3.10D-03
 Coeff-Com:  0.100D+01
 Coeff-En:   0.100D+01
 Coeff:      0.100D+01
 Gap=     0.646 Goal=   None    Shift=    0.000
 RMSDP=1.20D-04 MaxDP=9.06D-04              OVMax= 1.63D-03

 Cycle   2  Pass 1  IDiag  1:
 E= -155.043933859724     Delta-E=       -0.000030318803 Rises=F Damp=F
 DIIS: error= 5.04D-05 at cycle   2 NSaved=   2.
 NSaved= 2 IEnMin= 2 EnMin= -155.043933859724     IErMin= 2 ErrMin= 5.04D-05
 ErrMax= 5.04D-05  0.00D+00 EMaxC= 1.00D-01 BMatC= 3.52D-07 BMatP= 2.03D-05
 IDIUse=1 WtCom= 1.00D+00 WtEn= 0.00D+00
 Coeff-Com: -0.174D-01 0.102D+01
 Coeff:     -0.174D-01 0.102D+01
 Gap=     0.317 Goal=   None    Shift=    0.000
 RMSDP=1.47D-05 MaxDP=2.45D-04 DE=-3.03D-05 OVMax= 2.48D-04

 Cycle   3  Pass 1  IDiag  1:
 E= -155.043933956545     Delta-E=       -0.000000096821 Rises=F Damp=F
 DIIS: error= 5.95D-05 at cycle   3 NSaved=   3.
 NSaved= 3 IEnMin= 3 EnMin= -155.043933956545     IErMin= 2 ErrMin= 5.04D-05
 ErrMax= 5.95D-05  0.00D+00 EMaxC= 1.00D-01 BMatC= 4.28D-07 BMatP= 3.52D-07
 IDIUse=1 WtCom= 1.00D+00 WtEn= 0.00D+00
 Coeff-Com: -0.244D-01 0.547D+00 0.477D+00
 Coeff:     -0.244D-01 0.547D+00 0.477D+00
 Gap=     0.317 Goal=   None    Shift=    0.000
 RMSDP=7.30D-06 MaxDP=1.56D-04 DE=-9.68D-08 OVMax= 1.48D-04

 Cycle   4  Pass 1  IDiag  1:
 E= -155.043934252334     Delta-E=       -0.000000295790 Rises=F Damp=F
 DIIS: error= 1.20D-05 at cycle   4 NSaved=   4.
 NSaved= 4 IEnMin= 4 EnMin= -155.043934252334     IErMin= 4 ErrMin= 1.20D-05
 ErrMax= 1.20D-05  0.00D+00 EMaxC= 1.00D-01 BMatC= 1.79D-08 BMatP= 3.52D-07
 IDIUse=1 WtCom= 1.00D+00 WtEn= 0.00D+00
 Coeff-Com: -0.866D-02 0.112D+00 0.206D+00 0.690D+00
 Coeff:     -0.866D-02 0.112D+00 0.206D+00 0.690D+00
 Gap=     0.317 Goal=   None    Shift=    0.000
 RMSDP=1.60D-06 MaxDP=2.51D-05 DE=-2.96D-07 OVMax= 2.93D-05

 Cycle   5  Pass 1  IDiag  1:
 E= -155.043934265917     Delta-E=       -0.000000013582 Rises=F Damp=F
 DIIS: error= 2.26D-06 at cycle   5 NSaved=   5.
 NSaved= 5 IEnMin= 5 EnMin= -155.043934265917     IErMin= 5 ErrMin= 2.26D-06
 ErrMax= 2.26D-06  0.00D+00 EMaxC= 1.00D-01 BMatC= 4.30D-10 BMatP= 1.79D-08
 IDIUse=1 WtCom= 1.00D+00 WtEn= 0.00D+00
 Coeff-Com: -0.156D-02 0.146D-01 0.478D-01 0.218D+00 0.721D+00
 Coeff:     -0.156D-02 0.146D-01 0.478D-01 0.218D+00 0.721D+00
 Gap=     0.317 Goal=   None    Shift=    0.000
 RMSDP=3.58D-07 MaxDP=6.61D-06 DE=-1.36D-08 OVMax= 7.16D-06

 Cycle   6  Pass 1  IDiag  1:
 E= -155.043934266257     Delta-E=       -0.000000000340 Rises=F Damp=F
 DIIS: error= 1.17D-06 at cycle   6 NSaved=   6.
 NSaved= 6 IEnMin= 6 EnMin= -155.043934266257     IErMin= 6 ErrMin= 1.17D-06
 ErrMax= 1.17D-06  0.00D+00 EMaxC= 1.00D-01 BMatC= 1.05D-10 BMatP= 4.30D-10
 IDIUse=1 WtCom= 1.00D+00 WtEn= 0.00D+00
 Coeff-Com:  0.123D-03-0.483D-02 0.110D-02 0.282D-01 0.361D+00 0.614D+00
 Coeff:      0.123D-03-0.483D-02 0.110D-02 0.282D-01 0.361D+00 0.614D+00
 Gap=     0.317 Goal=   None    Shift=    0.000
 RMSDP=1.23D-07 MaxDP=2.25D-06 DE=-3.40D-10 OVMax= 2.37D-06

 Cycle   7  Pass 1  IDiag  1:
 E= -155.043934266366     Delta-E=       -0.000000000109 Rises=F Damp=F
 DIIS: error= 7.83D-08 at cycle   7 NSaved=   7.
 NSaved= 7 IEnMin= 7 EnMin= -155.043934266366     IErMin= 7 ErrMin= 7.83D-08
 ErrMax= 7.83D-08  0.00D+00 EMaxC= 1.00D-01 BMatC= 5.60D-13 BMatP= 1.05D-10
 IDIUse=1 WtCom= 1.00D+00 WtEn= 0.00D+00
 Coeff-Com:  0.751D-04-0.167D-02-0.877D-03 0.980D-03 0.700D-01 0.143D+00
 Coeff-Com:  0.788D+00
 Coeff:      0.751D-04-0.167D-02-0.877D-03 0.980D-03 0.700D-01 0.143D+00
 Coeff:      0.788D+00
 Gap=     0.317 Goal=   None    Shift=    0.000
 RMSDP=1.32D-08 MaxDP=1.38D-07 DE=-1.09D-10 OVMax= 2.48D-07

 Cycle   8  Pass 1  IDiag  1:
 E= -155.043934266367     Delta-E=       -0.000000000002 Rises=F Damp=F
 DIIS: error= 1.57D-08 at cycle   8 NSaved=   8.
 NSaved= 8 IEnMin= 8 EnMin= -155.043934266367     IErMin= 8 ErrMin= 1.57D-08
 ErrMax= 1.57D-08  0.00D+00 EMaxC= 1.00D-01 BMatC= 2.19D-14 BMatP= 5.60D-13
 IDIUse=1 WtCom= 1.00D+00 WtEn= 0.00D+00
 Coeff-Com:  0.139D-04-0.200D-03-0.294D-03-0.116D-02 0.374D-03 0.601D-02
 Coeff-Com:  0.175D+00 0.821D+00
 Coeff:      0.139D-04-0.200D-03-0.294D-03-0.116D-02 0.374D-03 0.601D-02
 Coeff:      0.175D+00 0.821D+00
 Gap=     0.317 Goal=   None    Shift=    0.000
 RMSDP=2.41D-09 MaxDP=3.60D-08 DE=-1.76D-12 OVMax= 5.26D-08

 SCF Done:  E(RB3LYP) =  -155.043934266     A.U. after    8 cycles
            NFock=  8  Conv=0.24D-08     -V/T= 2.0072
 KE= 1.539397179759D+02 PE=-5.248031783564D+02 EE= 1.345123184129D+02
 Leave Link  502 at Thu Dec 16 11:32:35 2021, MaxMem=   536870912 cpu:              16.5 elap:               4.2
 (Enter /opt/gaussian/g16/sse4/g16/l701.exe)
 ... and contract with generalized density number  0.
 Compute integral first derivatives.
 Leave Link  701 at Thu Dec 16 11:32:35 2021, MaxMem=   536870912 cpu:               0.7 elap:               0.2
 (Enter /opt/gaussian/g16/sse4/g16/l702.exe)
 L702 exits ... SP integral derivatives will be done elsewhere.
 Leave Link  702 at Thu Dec 16 11:32:36 2021, MaxMem=   536870912 cpu:               0.1 elap:               0.0
 (Enter /opt/gaussian/g16/sse4/g16/l703.exe)
 Integral derivatives from FoFJK, PRISM(SPDF).
 Compute integral first derivatives, UseDBF=F ICtDFT=           0.
 Calling FoFJK, ICntrl=      2127 FMM=F ISym2X=0 I1Cent= 0 IOpClX= 0 NMat=1 NMatS=1 NMatT=0.
 FoFJK:  IHMeth= 1 ICntrl=    2127 DoSepK=F KAlg= 0 I1Cent=           0 FoldK=F
 IRaf=         0 NMat=       1 IRICut=       1 DoRegI=T DoRafI=F ISym2E= 0 IDoP0=0 IntGTp=1.
 FoFCou: FMM=F IPFlag=           0 FMFlag=      100000 FMFlg1=         800
         NFxFlg=           0 DoJE=F BraDBF=F KetDBF=F FulRan=T
         wScrn=  0.000000 ICntrl=      2127 IOpCl=  0 I1Cent=           0 NGrid=           0
         NMat0=    1 NMatS0=      1 NMatT0=    0 NMatD0=    1 NMtDS0=    0 NMtDT0=    0
 Symmetry not used in FoFCou.
 Leave Link  703 at Thu Dec 16 11:32:37 2021, MaxMem=   536870912 cpu:               5.4 elap:               1.4
 (Enter /opt/gaussian/g16/sse4/g16/l716.exe)
 Dipole        =-4.00555844D-01-8.95196519D-02 4.34334114D-01
 ***** Axes restored to original set *****
 -------------------------------------------------------------------
 Center     Atomic                   Forces (Hartrees/Bohr)
 Number     Number              X              Y              Z
 -------------------------------------------------------------------
      1        6           0.000219634    0.000506275   -0.000088395
      2        6           0.000114985    0.001285066   -0.000734930
      3        8          -0.000389033   -0.001013569    0.000647438
      4        1           0.000068663   -0.000057659   -0.000019288
      5        1           0.000105647   -0.000163785    0.000251211
      6        1          -0.000022892   -0.000227808   -0.000066082
      7        1          -0.000013423   -0.000138158    0.000091552
      8        1          -0.000065435   -0.000125898   -0.000141413
      9        1          -0.000018146   -0.000064465    0.000059907
 -------------------------------------------------------------------
 Cartesian Forces:  Max     0.001285066 RMS     0.000401714
 Leave Link  716 at Thu Dec 16 11:32:37 2021, MaxMem=   536870912 cpu:               0.1 elap:               0.0
 (Enter /opt/gaussian/g16/sse4/g16/l103.exe)

 GradGradGradGradGradGradGradGradGradGradGradGradGradGradGradGradGradGrad
 Berny optimization.
 Using GEDIIS/GDIIS optimizer.
 FormGI is forming the generalized inverse of G from B-inverse, IUseBI=4.
 Internal  Forces:  Max     0.001343648 RMS     0.000264644
 Search for a local minimum.
 Step number   3 out of a maximum of   43
 All quantities printed in internal units (Hartrees-Bohrs-Radians)
 RMS Force = .26464D-03 SwitMx=.10000D-02 MixMth= 2
 Mixed Optimization -- En-DIIS/RFO-DIIS
 Swapping is turned off.
 Update second derivatives using D2CorX and points    1    2    3
 DE= -8.65D-05 DEPred=-8.06D-05 R= 1.07D+00
 TightC=F SS=  1.41D+00  RLast= 3.86D-02 DXNew= 8.4853D-01 1.1565D-01
 Trust test= 1.07D+00 RLast= 3.86D-02 DXMaxT set to 5.05D-01
 ITU=  1  1  0
     Eigenvalues ---    0.00571   0.01425   0.05230   0.05553   0.05697
     Eigenvalues ---    0.05976   0.11791   0.13879   0.15873   0.15993
     Eigenvalues ---    0.16000   0.16794   0.24109   0.30699   0.33048
     Eigenvalues ---    0.34237   0.34262   0.34369   0.34962   0.40274
     Eigenvalues ---    0.53356
 En-DIIS/RFO-DIIS/Sim-DIIS IScMMF=       -3 using points:     3    2
 RFO step:  Lambda=-9.01774671D-06.
 NNeg= 0 NGDIIS= 2 SimSw=  2.50D-03 Rises=F DC= -8.65D-05 SmlDif=  1.00D-05
 NRisDI= 0 DoIntr=F SqrtH=F CThrHd= 10.0 CDAdj=  3.0
 RMS Error=  0.2163504574D-02 NUsed= 2 OKEnD=T EnDIS=F
 InvSVX:  RCond= 3.71D-04 Info=           0 Equed=N FErr=  1.27D-15 BErr=  1.98D-17
 DidBck=F Rises=F RFO-DIIS coefs:    1.10712   -0.10712
 Iteration  1 RMS(Cart)=  0.00206236 RMS(Int)=  0.00000455
 Iteration  2 RMS(Cart)=  0.00000335 RMS(Int)=  0.00000281
 Iteration  3 RMS(Cart)=  0.00000000 RMS(Int)=  0.00000281
 ITry= 1 IFail=0 DXMaxC= 5.37D-03 DCOld= 1.00D+10 DXMaxT= 5.05D-01 DXLimC= 3.00D+00 Rises=F
 Variable       Old X    -DE/DX   Delta X   Delta X   Delta X     New X
                                 (Linear)    (Quad)   (Total)
    R1        2.88245  -0.00037  -0.00038  -0.00099  -0.00137   2.88108
    R2        2.08441   0.00001  -0.00012   0.00018   0.00007   2.08448
    R3        2.08846  -0.00027   0.00014  -0.00082  -0.00068   2.08778
    R4        2.08279  -0.00021   0.00004  -0.00061  -0.00057   2.08222
    R5        2.69089  -0.00134  -0.00057  -0.00305  -0.00362   2.68727
    R6        2.09715   0.00007   0.00019   0.00025   0.00044   2.09759
    R7        2.08349  -0.00016   0.00026  -0.00055  -0.00029   2.08320
    R8        1.83069  -0.00005   0.00020  -0.00024  -0.00004   1.83065
    A1        1.94231  -0.00018  -0.00121  -0.00104  -0.00225   1.94006
    A2        1.93718  -0.00001   0.00065  -0.00041   0.00024   1.93741
    A3        1.92721   0.00021   0.00045   0.00169   0.00214   1.92935
    A4        1.87715  -0.00001  -0.00033  -0.00102  -0.00135   1.87579
    A5        1.89552  -0.00002   0.00008  -0.00013  -0.00004   1.89548
    A6        1.88249   0.00000   0.00038   0.00090   0.00128   1.88376
    A7        1.96869   0.00018  -0.00070   0.00182   0.00112   1.96980
    A8        1.92165  -0.00010  -0.00027  -0.00054  -0.00082   1.92084
    A9        1.92349  -0.00007   0.00052  -0.00106  -0.00054   1.92296
   A10        1.94196   0.00004  -0.00070   0.00176   0.00105   1.94302
   A11        1.83768  -0.00003   0.00146  -0.00087   0.00059   1.83827
   A12        1.86594  -0.00004  -0.00019  -0.00133  -0.00152   1.86442
   A13        1.87282  -0.00014   0.00104  -0.00147  -0.00043   1.87239
    D1       -3.08108  -0.00000  -0.00108   0.00340   0.00232  -3.07876
    D2        1.02140  -0.00012   0.00058   0.00015   0.00074   1.02214
    D3       -1.03279   0.00003   0.00066   0.00276   0.00342  -1.02938
    D4        1.11214   0.00013  -0.00029   0.00565   0.00536   1.11750
    D5       -1.06857   0.00002   0.00137   0.00240   0.00378  -1.06479
    D6       -3.12276   0.00017   0.00145   0.00501   0.00646  -3.11630
    D7       -0.97460  -0.00000  -0.00148   0.00369   0.00221  -0.97239
    D8        3.12788  -0.00011   0.00019   0.00044   0.00063   3.12850
    D9        1.07368   0.00003   0.00027   0.00304   0.00331   1.07699
   D10       -1.06647  -0.00001   0.00091  -0.00102  -0.00012  -1.06659
   D11        1.10314   0.00002  -0.00054   0.00101   0.00047   1.10360
   D12        3.11842  -0.00001  -0.00028  -0.00019  -0.00048   3.11795
         Item               Value     Threshold  Converged?
 Maximum Force            0.001344     0.000450     NO 
 RMS     Force            0.000265     0.000300     YES
 Maximum Displacement     0.005369     0.001800     NO 
 RMS     Displacement     0.002063     0.001200     NO 
 Predicted change in Energy=-4.509079D-06
 Lowest energy point so far.  Saving SCF results.
 GradGradGradGradGradGradGradGradGradGradGradGradGradGradGradGradGradGrad

 Leave Link  103 at Thu Dec 16 11:32:37 2021, MaxMem=   536870912 cpu:               0.0 elap:               0.0
 (Enter /opt/gaussian/g16/sse4/g16/l202.exe)
                          Input orientation:                          
 ---------------------------------------------------------------------
 Center     Atomic      Atomic             Coordinates (Angstroms)
 Number     Number       Type             X           Y           Z
 ---------------------------------------------------------------------
      1          6           0        0.995311    0.072189   -0.057923
      2          6           0        2.519387    0.090794   -0.093421
      3          8           0        3.043376    1.259050   -0.712140
      4          1           0        0.620458   -0.812850    0.483307
      5          1           0        0.575763    0.038696   -1.079418
      6          1           0        0.609013    0.977154    0.437976
      7          1           0        2.900036   -0.830208   -0.582249
      8          1           0        2.923560    0.098027    0.932173
      9          1           0        2.721875    1.269578   -1.625914
 ---------------------------------------------------------------------
                    Distance matrix (angstroms):
                    1          2          3          4          5
     1  C    0.000000
     2  C    1.524603   0.000000
     3  O    2.455852   1.422041   0.000000
     4  H    1.103059   2.180623   3.404760   0.000000
     5  H    1.104805   2.180041   2.777277   1.780234   0.000000
     6  H    1.101863   2.171991   2.707093   1.790614   1.784459
     7  H    2.171915   1.109996   2.098193   2.516383   2.530695
     8  H    2.167741   1.102383   2.016456   2.517032   3.092275
     9  H    2.621710   1.943983   0.968740   3.633356   2.533679
                    6          7          8          9
     6  H    0.000000
     7  H    3.091311   0.000000
     8  H    2.524721   1.776414   0.000000
     9  H    2.968054   2.351612   2.820819   0.000000
 Stoichiometry    C2H6O
 Framework group  C1[X(C2H6O)]
 Deg. of freedom    21
 Full point group                 C1      NOp   1
 RotChk:  IX=0 Diff= 2.13D-03
 Largest Abelian subgroup         C1      NOp   1
 Largest concise Abelian subgroup C1      NOp   1
                         Standard orientation:                         
 ---------------------------------------------------------------------
 Center     Atomic      Atomic             Coordinates (Angstroms)
 Number     Number       Type             X           Y           Z
 ---------------------------------------------------------------------
      1          6           0       -1.214159   -0.238835   -0.022297
      2          6           0        0.085471    0.555260    0.046891
      3          8           0        1.240088   -0.260176   -0.108427
      4          1           0       -2.091371    0.427285    0.037059
      5          1           0       -1.285028   -0.956147    0.814981
      6          1           0       -1.269065   -0.809354   -0.963358
      7          1           0        0.126238    1.137094    0.991295
      8          1           0        0.130215    1.284030   -0.779027
      9          1           0        1.240430   -0.900056    0.618903
 ---------------------------------------------------------------------
 Rotational constants (GHZ):          34.1598310           9.1500773           8.0869978
 Leave Link  202 at Thu Dec 16 11:32:37 2021, MaxMem=   536870912 cpu:               0.0 elap:               0.0
 (Enter /opt/gaussian/g16/sse4/g16/l301.exe)
 Standard basis: CC-pVDZ (5D, 7F)
 Ernie: Thresh=  0.10000D-02 Tol=  0.10000D-05 Strict=F.
 Ernie:  6 primitive shells out of 96 were deleted.
 There are    75 symmetry adapted cartesian basis functions of A   symmetry.
 There are    72 symmetry adapted basis functions of A   symmetry.
[...]
     25 -0.767049D-04  0.224101D-02  0.119258D-01 -0.112683D-01 -0.408736D-03
     26  0.962342D-02  0.522725D-02 -0.100342D-01  0.213088D-02  0.344539D-02
     27 -0.317830D-02 -0.716675D-02 -0.735023D-03  0.121888D-01 -0.482589D-02
     28 -0.260255D-02  0.217666D-03  0.105038D-01 -0.128353D-01  0.796752D-03
     29  0.709758D-02  0.320390D-02 -0.114562D-01  0.563913D-03  0.465087D-02
     30 -0.570414D-02 -0.919010D-02 -0.215709D-02  0.106218D-01 -0.362040D-02
     31 -0.208604D-01  0.233957D-01  0.979517D-02 -0.625204D-02 -0.777763D-03
     32  0.242637D-01  0.437062D-02 -0.207095D-01 -0.135560D-01 -0.141132D-01
     33 -0.306952D-02 -0.268509D-01  0.122185D-01  0.204435D-01  0.143086D-01
               21            22            23            24            25 
     21  0.185347D+00
     22 -0.440874D-02  0.157973D-01
     23  0.298679D-03  0.220311D-02  0.152807D-01
     24  0.299127D-02  0.196183D-02  0.269138D-02  0.153684D-01
     25 -0.395904D-02  0.622772D-02 -0.737195D-02 -0.817162D-02  0.165754D-01
     26  0.748378D-03 -0.736646D-02  0.570561D-02 -0.744207D-02  0.297575D-02
     27  0.344097D-02 -0.760775D-02 -0.688369D-02  0.523492D-02  0.217609D-02
     28 -0.416083D-02  0.629963D-02 -0.801146D-02 -0.754897D-02  0.680522D-02
     29  0.546587D-03 -0.729456D-02  0.506610D-02 -0.681942D-02 -0.679445D-02
     30  0.323918D-02 -0.753585D-02 -0.752320D-02  0.585757D-02 -0.759412D-02
     31  0.277476D-03 -0.268553D-02  0.328027D-02  0.274662D-02 -0.445868D-02
     32 -0.167429D-02  0.204462D-02 -0.167375D-02 -0.165420D-02  0.265574D-02
     33  0.270523D-02  0.109513D-02 -0.127977D-02 -0.804211D-03  0.166584D-02
               26            27            28            29            30 
     26  0.160478D-01
     27  0.290015D-02  0.150188D-01
     28 -0.750587D-02 -0.704337D-02  0.167487D-01
     29  0.556621D-02 -0.631931D-02  0.243762D-02  0.147983D-01
     30 -0.758147D-02  0.579930D-02  0.290011D-02  0.291276D-02  0.162935D-01
     31  0.150712D-02  0.973468D-03 -0.442897D-02  0.153683D-02  0.100318D-02
     32 -0.106263D-02 -0.104308D-02  0.288526D-02 -0.833102D-03 -0.813552D-03
     33 -0.709053D-03 -0.233499D-03  0.173929D-02 -0.635604D-03 -0.160049D-03
               31            32            33 
     31  0.163683D-01
     32 -0.648103D-02  0.221169D-01
     33 -0.612450D-02 -0.123106D-01  0.220694D-01
 Leave Link  716 at Thu Dec 16 11:33:41 2021, MaxMem=   536870912 cpu:               0.1 elap:               0.1
 (Enter /opt/gaussian/g16/sse4/g16/l103.exe)

 GradGradGradGradGradGradGradGradGradGradGradGradGradGradGradGradGradGrad
 Berny optimization.
 Red2BG is reusing G-inverse.
 Internal  Forces:  Max     0.000057977 RMS     0.000016817
 Search for a local minimum.
 Step number   1 out of a maximum of    2
 All quantities printed in internal units (Hartrees-Bohrs-Radians)
 Second derivative matrix not updated -- analytic derivatives used.
 ITU=  0
     Eigenvalues ---    0.00301   0.00357   0.04276   0.04315   0.04863
     Eigenvalues ---    0.05897   0.10064   0.11922   0.12097   0.12792
     Eigenvalues ---    0.16062   0.17380   0.23822   0.29264   0.31016
     Eigenvalues ---    0.32955   0.33165   0.33635   0.34095   0.38095
     Eigenvalues ---    0.50999
 Angle between quadratic step and forces=  67.74 degrees.
 Linear search not attempted -- first point.
 Iteration  1 RMS(Cart)=  0.00024233 RMS(Int)=  0.00000007
 Iteration  2 RMS(Cart)=  0.00000006 RMS(Int)=  0.00000001
 ITry= 1 IFail=0 DXMaxC= 7.02D-04 DCOld= 1.00D+10 DXMaxT= 3.00D-01 DXLimC= 3.00D+00 Rises=F
 Variable       Old X    -DE/DX   Delta X   Delta X   Delta X     New X
                                 (Linear)    (Quad)   (Total)
    R1        2.88124   0.00006   0.00000   0.00023   0.00023   2.88147
    R2        2.08464  -0.00001   0.00000  -0.00006  -0.00006   2.08459
    R3        2.08769   0.00001   0.00000   0.00003   0.00003   2.08772
    R4        2.08204   0.00003   0.00000   0.00009   0.00009   2.08213
    R5        2.68637  -0.00005   0.00000  -0.00017  -0.00017   2.68620
    R6        2.09778   0.00000   0.00000   0.00001   0.00001   2.09779
    R7        2.08328   0.00000   0.00000   0.00001   0.00001   2.08329
    R8        1.83062  -0.00002   0.00000  -0.00003  -0.00003   1.83059
    A1        1.94002  -0.00000   0.00000   0.00005   0.00005   1.94007
    A2        1.93764   0.00000   0.00000   0.00004   0.00004   1.93768
    A3        1.92959   0.00000   0.00000  -0.00010  -0.00010   1.92948
    A4        1.87541   0.00001   0.00000   0.00024   0.00024   1.87565
    A5        1.89527  -0.00000   0.00000  -0.00004  -0.00004   1.89523
    A6        1.88391  -0.00001   0.00000  -0.00018  -0.00018   1.88373
    A7        1.97103   0.00000   0.00000  -0.00001  -0.00001   1.97103
    A8        1.91984   0.00000   0.00000   0.00003   0.00003   1.91987
    A9        1.92246  -0.00000   0.00000  -0.00013  -0.00013   1.92233
   A10        1.94356   0.00001   0.00000   0.00012   0.00012   1.94367
   A11        1.83882  -0.00001   0.00000  -0.00010  -0.00010   1.83872
   A12        1.86353   0.00000   0.00000   0.00009   0.00009   1.86362
   A13        1.87334  -0.00002   0.00000  -0.00004  -0.00004   1.87330
    D1       -3.07789   0.00002   0.00000   0.00044   0.00044  -3.07745
    D2        1.02215   0.00001   0.00000   0.00027   0.00027   1.02242
    D3       -1.02737  -0.00000   0.00000   0.00022   0.00022  -1.02715
    D4        1.11872   0.00000   0.00000   0.00008   0.00008   1.11880
    D5       -1.06443  -0.00001   0.00000  -0.00009  -0.00009  -1.06451
    D6       -3.11394  -0.00002   0.00000  -0.00014  -0.00014  -3.11408
    D7       -0.97166   0.00001   0.00000   0.00035   0.00035  -0.97131
    D8        3.12838   0.00000   0.00000   0.00018   0.00018   3.12856
    D9        1.07886  -0.00000   0.00000   0.00013   0.00013   1.07899
   D10       -1.06622  -0.00000   0.00000   0.00061   0.00061  -1.06561
   D11        1.10400   0.00000   0.00000   0.00073   0.00073   1.10474
   D12        3.11787   0.00001   0.00000   0.00084   0.00084   3.11871
         Item               Value     Threshold  Converged?
 Maximum Force            0.000058     0.000450     YES
 RMS     Force            0.000017     0.000300     YES
 Maximum Displacement     0.000702     0.001800     YES
 RMS     Displacement     0.000242     0.001200     YES
 Predicted change in Energy=-2.824453D-08
 Optimization completed.
    -- Stationary point found.
                           ----------------------------
                           !   Optimized Parameters   !
                           ! (Angstroms and Degrees)  !
 --------------------------                            --------------------------
 ! Name  Definition              Value          Derivative Info.                !
 --------------------------------------------------------------------------------
 ! R1    R(1,2)                  1.5247         -DE/DX =    0.0001              !
 ! R2    R(1,4)                  1.1031         -DE/DX =    0.0                 !
 ! R3    R(1,5)                  1.1048         -DE/DX =    0.0                 !
 ! R4    R(1,6)                  1.1018         -DE/DX =    0.0                 !
 ! R5    R(2,3)                  1.4216         -DE/DX =   -0.0001              !
 ! R6    R(2,7)                  1.1101         -DE/DX =    0.0                 !
 ! R7    R(2,8)                  1.1024         -DE/DX =    0.0                 !
 ! R8    R(3,9)                  0.9687         -DE/DX =    0.0                 !
 ! A1    A(2,1,4)              111.1548         -DE/DX =    0.0                 !
 ! A2    A(2,1,5)              111.0187         -DE/DX =    0.0                 !
 ! A3    A(2,1,6)              110.5573         -DE/DX =    0.0                 !
 ! A4    A(4,1,5)              107.4532         -DE/DX =    0.0                 !
 ! A5    A(4,1,6)              108.5908         -DE/DX =    0.0                 !
 ! A6    A(5,1,6)              107.94           -DE/DX =    0.0                 !
 ! A7    A(1,2,3)              112.9318         -DE/DX =    0.0                 !
 ! A8    A(1,2,7)              109.9988         -DE/DX =    0.0                 !
 ! A9    A(1,2,8)              110.149          -DE/DX =    0.0                 !
 ! A10   A(3,2,7)              111.3577         -DE/DX =    0.0                 !
 ! A11   A(3,2,8)              105.3568         -DE/DX =    0.0                 !
 ! A12   A(7,2,8)              106.7724         -DE/DX =    0.0                 !
 ! A13   A(2,3,9)              107.3345         -DE/DX =    0.0                 !
 ! D1    D(4,1,2,3)           -176.3501         -DE/DX =    0.0                 !
 ! D2    D(4,1,2,7)             58.5648         -DE/DX =    0.0                 !
 ! D3    D(4,1,2,8)            -58.864          -DE/DX =    0.0                 !
 ! D4    D(5,1,2,3)             64.098          -DE/DX =    0.0                 !
 ! D5    D(5,1,2,7)            -60.9871         -DE/DX =    0.0                 !
 ! D6    D(5,1,2,8)           -178.4159         -DE/DX =    0.0                 !
 ! D7    D(6,1,2,3)            -55.6719         -DE/DX =    0.0                 !
 ! D8    D(6,1,2,7)            179.243          -DE/DX =    0.0                 !
 ! D9    D(6,1,2,8)             61.8142         -DE/DX =    0.0                 !
 ! D10   D(1,2,3,9)            -61.09           -DE/DX =    0.0                 !
 ! D11   D(7,2,3,9)             63.2548         -DE/DX =    0.0                 !
 ! D12   D(8,2,3,9)            178.641          -DE/DX =    0.0                 !
 --------------------------------------------------------------------------------
 GradGradGradGradGradGradGradGradGradGradGradGradGradGradGradGradGradGrad

 Leave Link  103 at Thu Dec 16 11:33:42 2021, MaxMem=   536870912 cpu:               0.0 elap:               0.0
 (Enter /opt/gaussian/g16/sse4/g16/l9999.exe)

 ----------------------------------------------------------------------

 Electric dipole moment (input orientation):
 (Debye = 10**-18 statcoulomb cm , SI units = C m)
                  (au)            (Debye)         (10**-30 SI)
   Tot        0.595928D+00      0.151470D+01      0.505249D+01
   x         -0.369592D+00     -0.939408D+00     -0.313353D+01
   y         -0.371447D+00     -0.944124D+00     -0.314926D+01
   z         -0.283829D+00     -0.721422D+00     -0.240640D+01

 Dipole polarizability, Alpha (input orientation).
 (esu units = cm**3 , SI units = C**2 m**2 J**-1)
 Alpha(0;0):
               (au)            (10**-24 esu)      (10**-40 SI)
   iso        0.280276D+02      0.415326D+01      0.462112D+01
   aniso      0.329367D+01      0.488072D+00      0.543053D+00
   xx         0.283496D+02      0.420098D+01      0.467422D+01
   yx         0.829740D+00      0.122955D+00      0.136806D+00
   yy         0.274184D+02      0.406299D+01      0.452068D+01
   zx        -0.196045D+00     -0.290509D-01     -0.323235D-01
   zy        -0.161573D+01     -0.239426D+00     -0.266398D+00
   zz         0.283147D+02      0.419580D+01      0.466846D+01

 ----------------------------------------------------------------------

 Dipole orientation:
     6          1.42276489          0.32376400         -1.19930476
     6          3.58518162          1.00886938         -2.97585620
     8          4.46530621         -1.08538289         -4.40975317
     1          0.70232519          2.00910275         -0.20615789
     1          2.04985843         -1.03853039          0.25305378
     1         -0.14604841         -0.54411763         -2.25784449
     1          5.14456389          1.90474864         -1.89585372
     1          2.94458768          2.40851830         -4.37966203
     1          5.08188200         -2.33718683         -3.22485462

 Electric dipole moment (dipole orientation):
 (Debye = 10**-18 statcoulomb cm , SI units = C m)
                  (au)            (Debye)         (10**-30 SI)
   Tot        0.595928D+00      0.151470D+01      0.505249D+01
   x          0.000000D+00      0.000000D+00      0.000000D+00
   y          0.000000D+00      0.000000D+00      0.000000D+00
   z          0.595928D+00      0.151470D+01      0.505249D+01

 Dipole polarizability, Alpha (dipole orientation).
 (esu units = cm**3 , SI units = C**2 m**2 J**-1)
 Alpha(0;0):
               (au)            (10**-24 esu)      (10**-40 SI)
   iso        0.280276D+02      0.415326D+01      0.462112D+01
   aniso      0.329367D+01      0.488072D+00      0.543053D+00
   xx         0.276060D+02      0.409079D+01      0.455162D+01
   yx        -0.120830D+01     -0.179051D+00     -0.199221D+00
   yy         0.289304D+02      0.428704D+01      0.476998D+01
   zx        -0.124247D+01     -0.184114D+00     -0.204855D+00
   zy        -0.126125D-01     -0.186898D-02     -0.207953D-02
   zz         0.275463D+02      0.408194D+01      0.454177D+01

 ----------------------------------------------------------------------
 1\1\GINC-NODE677\Freq\RB3LYP\CC-pVDZ\C2H6O1\THEOB\16-Dec-2021\0\\#P Ge
 om=AllCheck Guess=TCheck SCRF=Check GenChk RB3LYP/CC-pVDZ Freq\\Ethano
 l.xyz\\0,1\C,0.9951965933,0.0721895641,-0.0578821451\C,2.5193386741,0.
 0913944749,-0.093840427\O,3.0441307487,1.2589716591,-0.7120660205\H,0.
 620878172,-0.812696701,0.4841449535\H,0.5751536169,0.0374239597,-1.079
 078549\H,0.6084632453,0.9771255605,0.4375205243\H,2.8992173048,-0.8302
 306194,-0.5823225427\H,2.9233404049,0.097451111,0.9318706817\H,2.72306
 12401,1.2708009911,-1.6259564752\\Version=ES64L-G16RevA.03\State=1-A\H
 F=-155.0439399\RMSD=4.572e-10\RMSF=2.621e-05\ZeroPoint=0.0794136\Therm
 al=0.0836554\Dipole=-0.3695917,-0.3714469,-0.2838291\DipoleDeriv=-0.09
 15325,-0.0427494,0.0493486,0.0102381,0.0678876,0.020049,0.023343,-0.00
 14459,0.1030557,0.5568437,0.1557074,-0.1413317,0.1256189,0.7046378,-0.
 1534767,-0.1392688,-0.1740541,0.4132716,-0.6173592,-0.1295397,0.204900
 6,-0.1523946,-0.7449644,0.2005409,0.2292564,0.2306037,-0.3818292,-0.00
 1916,-0.0446052,0.0319032,-0.0746337,-0.0782955,0.090437,0.0467768,0.0
 874886,0.0122787,-0.018442,-0.0024008,-0.0400804,0.0103095,0.0598691,0
 .0001253,-0.089239,0.0003545,-0.1508033,-0.0074761,0.0364901,0.0189348
 ,0.0835245,-0.0711877,-0.0797419,0.0223109,-0.0679661,0.0244627,-0.069
 3014,0.0574854,0.0614442,0.0671024,-0.2126778,-0.0405067,0.0642407,-0.
 093304,-0.0310417,-0.0347934,-0.0129202,-0.0674386,-0.0276985,0.020368
 9,0.0022107,-0.0718349,0.0267242,-0.1369629,0.2839769,-0.0174675,-0.11
 76807,-0.0420666,0.254362,-0.0396377,-0.0855851,-0.0084009,0.1475683\P
 olar=28.3496192,0.8297405,27.418402,-0.196045,-1.6157286,28.3146685\Qu
 adrupole=-1.4508211,-0.6818611,2.1326822,-0.9507117,-0.0176439,-0.6841
 518\PG=C01 [X(C2H6O1)]\NImag=0\\0.47279880,-0.00240932,0.57327124,0.00
 045220,0.00002596,0.55783548,-0.20127875,0.01623525,-0.00776750,0.4817
 2943,0.00912483,-0.07667401,-0.00378242,-0.03215895,0.51508945,-0.0018
 1806,-0.00174824,-0.08126599,0.04013592,0.03733532,0.60309933,-0.01556
 901,-0.04059139,0.02216676,-0.08851883,-0.04419480,-0.00060841,0.16532
 946,-0.01031338,-0.01182987,0.01077355,-0.06109424,-0.18124411,0.03255
 541,0.10455436,0.26481017,0.00516920,0.00925516,-0.00264508,0.02665193
 ,0.07089082,-0.11772367,0.12624367,-0.09248434,0.56596674,-0.07575605,
 -0.06816740,0.04266431,-0.00303254,-0.02718062,0.01655099,-0.00923793,
 -0.00255007,0.00166384,0.07996643,-0.07041803,-0.21558962,0.10501789,0
 .00222983,-0.00107807,-0.00104724,-0.00114927,0.00169121,0.00045674,0.
 07772041,0.23150868,0.04399365,0.10527724,-0.10827871,-0.00122564,-0.0
 0029522,-0.00220481,0.00050879,-0.00021310,0.00157409,-0.04747514,-0.1
 1549573,0.11431617,-0.08002644,-0.00323116,-0.08649564,-0.01367640,-0.
 00051868,-0.03476750,0.00329958,0.00138368,0.00080441,0.00349332,0.001
 19183,0.01039018,0.08904109,-0.00254410,-0.04592726,-0.00948071,-0.000
 14359,-0.00126712,0.00124375,0.00028440,0.00018521,-0.00079538,0.01003
 639,0.00120393,0.02319230,0.00279780,0.04448031,-0.08772672,-0.0085730
 1,-0.26915987,0.00205858,0.00132320,-0.00022280,-0.00017062,-0.0016137
 3,0.00258974,-0.00542981,-0.00148390,-0.01378955,0.09754219,0.00905521
 ,0.29082299,-0.07551424,0.07234984,0.03996965,-0.01293467,0.03140035,0
 .01587711,0.00421903,-0.00122101,-0.00152807,0.00317297,-0.00881506,-0
 .00604290,0.00332192,-0.01004790,-0.00478905,0.08347540,0.07554798,-0.
 22682001,-0.10022788,-0.00120485,-0.00157788,0.00055800,0.00012997,0.0
 0227550,-0.00020932,0.00848890,-0.01820588,-0.01170848,-0.00044825,0.0
 0001429,0.00076521,-0.08291896,0.24292953,0.04061439,-0.10029362,-0.10
 130096,-0.00028688,0.00031915,-0.00024954,-0.00062927,0.00039400,-0.00
 015339,-0.00652863,0.01322425,0.00741102,0.01029996,-0.02388880,-0.012
 62232,-0.04381391,0.10966878,0.10511463,-0.01310693,0.02749727,0.01694
 753,-0.08016870,0.06833658,0.03912720,0.00629379,-0.01669187,-0.004436
 31,0.00081197,-0.00057676,0.00019618,0.00159508,-0.00006958,-0.0007098
 7,-0.00702212,-0.00008383,0.00001280,0.08682617,0.00019638,0.00169054,
 -0.00177592,0.06989893,-0.19696053,-0.08975892,-0.00040162,-0.03702655
 ,-0.00029968,0.00126704,0.00035785,-0.00031558,-0.00005383,-0.00002939
 ,0.00037024,-0.00060923,0.00126651,0.00008260,-0.07080493,0.22952162,-
 0.00183710,-0.00113761,0.00042283,0.03885848,-0.09369118,-0.10930458,-
 0.00319460,0.02091947,0.00969828,0.00019870,-0.00003744,0.00004417,0.0
 0049666,0.00074357,0.00101808,0.00036785,0.00065589,0.00149574,-0.0448
 3633,0.09522594,0.10749100,-0.01349544,-0.00167537,-0.03114999,-0.0842
 7942,-0.00100204,-0.09211303,0.00520672,-0.00304749,0.01536175,0.00094
 335,-0.00037020,0.00037006,-0.00673666,0.00013071,0.00031219,0.0014883
 4,0.00040848,0.00021176,0.00480609,0.00105864,0.01061524,0.09205515,0.
 00078906,0.00062417,-0.00029724,-0.00451438,-0.04921500,-0.01973389,0.
 00762834,-0.00654256,0.03576292,-0.00000588,0.00021756,-0.00015064,-0.
 00028489,0.00116488,0.00059913,-0.00013763,0.00026830,0.00090133,-0.00
 873005,0.00039649,-0.02304525,0.00687830,0.05779004,0.00093632,-0.0008
 1630,0.00220548,-0.08844733,-0.00869891,-0.27066904,-0.00219802,0.0079
 8378,-0.01819667,-0.00086088,-0.00029420,0.00033955,0.00077205,-0.0001
 5216,0.00173432,-0.00023975,0.00040391,0.00062202,-0.00567026,-0.00243
 465,-0.01298855,0.09407954,0.00124152,0.29626363,0.00194807,-0.0000077
 3,0.00321267,0.00215987,-0.00380666,0.01761578,-0.07102281,-0.01101997
 ,-0.16993043,-0.00036152,0.00018724,-0.00071518,-0.00031149,-0.0004441
 3,-0.00108688,-0.00020664,0.00008057,0.00011980,-0.00003534,-0.0005513
 8,-0.00066890,0.00001187,-0.00162286,0.00162832,0.06781800,0.00002658,
 0.00125482,-0.00025323,0.01075201,-0.00707273,0.04059582,-0.02625999,-
 0.03231899,-0.02257692,0.00039122,-0.00010567,-0.00029077,-0.00083649,
 0.00017515,-0.00044235,-0.00000039,-0.00015036,-0.00040769,0.00112317,
 0.00078347,0.00036660,-0.00238104,-0.00470388,0.00276701,0.01718492,0.
 04213820,0.00021613,-0.00198958,0.00218682,-0.00997755,-0.00340075,-0.
 02145890,-0.14211831,0.02168494,-0.44111003,-0.00078339,-0.00034036,0.
 00058807,0.00095769,0.00008221,-0.00037058,0.00019906,0.00009390,-0.00
 031720,-0.00063093,-0.00109403,0.00212302,0.00231248,0.00472211,0.0006
 8928,0.14982482,-0.01975846,0.45766952\\0.00004376,0.00006156,-0.00000
 349,-0.00007212,-0.00001751,0.00005511,0.00001135,0.00002842,-0.000026
 83,-0.00000681,-0.00001776,-0.00000782,0.00000672,-0.00002045,0.000010
 66,0.00001414,-0.00002417,-0.00000452,-0.00000087,0.00000294,-0.000001
 64,0.00000032,-0.00001988,-0.00000253,0.00000352,0.00000685,-0.0000189
 4\\\@


 ... UNTIL SCIENCE IS MIXED WITH EMOTION AND APPEALS TO THE HEART AND
 IMAGINATION , IT IS LIKE DEAD INORGANIC MATTER; AND WHEN IT IS SO MIXED
 AND SO TRANSFORMED IT IS LITERATURE.

                                  -- JOHN BURROUGHS
 Job cpu time:       0 days  0 hours  2 minutes 12.3 seconds.
 Elapsed time:       0 days  0 hours  0 minutes 33.7 seconds.
 File lengths (MBytes):  RWF=     10 Int=      0 D2E=      0 Chk=      2 Scr=      1
 Normal termination of Gaussian 16 at Thu Dec 16 11:33:43 2021.
