Running on  hostname
Wed Dec 15 08:58:08 CET 2021

                                 *****************
                                 * O   R   C   A *
                                 *****************

                                            #,                                       
                                            ###                                      
                                            ####                                     
                                            #####                                    
                                            ######                                   
                                           ########,                                 
                                     ,,################,,,,,                         
                               ,,#################################,,                 
                          ,,##########################################,,             
                       ,#########################################, ''#####,          
                    ,#############################################,,   '####,        
                  ,##################################################,,,,####,       
                ,###########''''           ''''###############################       
              ,#####''   ,,,,##########,,,,          '''####'''          '####       
            ,##' ,,,,###########################,,,                        '##       
           ' ,,###''''                  '''############,,,                           
         ,,##''                                '''############,,,,        ,,,,,,###''
      ,#''                                            '''#######################'''  
     '                                                          ''''####''''         
             ,#######,   #######,   ,#######,      ##                                
            ,#'     '#,  ##    ##  ,#'     '#,    #''#        ######   ,####,        
            ##       ##  ##   ,#'  ##            #'  '#       #        #'  '#        
            ##       ##  #######   ##           ,######,      #####,   #    #        
            '#,     ,#'  ##    ##  '#,     ,#' ,#      #,         ##   #,  ,#        
             '#######'   ##     ##  '#######'  #'      '#     #####' # '####'        



                  #######################################################
                  #                        -***-                        #
                  #          Department of theory and spectroscopy      #
                  #    Directorship and core code : Frank Neese         #
                  #        Max Planck Institute fuer Kohlenforschung    #
                  #                Kaiser Wilhelm Platz 1               #
                  #                 D-45470 Muelheim/Ruhr               #
                  #                      Germany                        #
                  #                                                     #
                  #                  All rights reserved                #
                  #                        -***-                        #
                  #######################################################


                         Program Version 5.0.1 -  RELEASE  -


 With contributions from (in alphabetic order):
   Daniel Aravena         : Magnetic Suceptibility
   Michael Atanasov       : Ab Initio Ligand Field Theory (pilot matlab implementation)
   Alexander A. Auer      : GIAO ZORA, VPT2 properties, NMR spectrum
   Ute Becker             : Parallelization
   Giovanni Bistoni       : ED, misc. LED, open-shell LED, HFLD
   Martin Brehm           : Molecular dynamics
   Dmytro Bykov           : SCF Hessian
   Vijay G. Chilkuri      : MRCI spin determinant printing, contributions to CSF-ICE
   Dipayan Datta          : RHF DLPNO-CCSD density
   Achintya Kumar Dutta   : EOM-CC, STEOM-CC
   Dmitry Ganyushin       : Spin-Orbit,Spin-Spin,Magnetic field MRCI
   Miquel Garcia          : C-PCM and meta-GGA Hessian, CC/C-PCM, Gaussian charge scheme
   Yang Guo               : DLPNO-NEVPT2, F12-NEVPT2, CIM, IAO-localization
   Andreas Hansen         : Spin unrestricted coupled pair/coupled cluster methods
   Benjamin Helmich-Paris : MC-RPA, TRAH-SCF, COSX integrals
   Lee Huntington         : MR-EOM, pCC
   Robert Izsak           : Overlap fitted RIJCOSX, COSX-SCS-MP3, EOM
   Marcus Kettner         : VPT2
   Christian Kollmar      : KDIIS, OOCD, Brueckner-CCSD(T), CCSD density, CASPT2, CASPT2-K
   Simone Kossmann        : Meta GGA functionals, TD-DFT gradient, OOMP2, MP2 Hessian
   Martin Krupicka        : Initial AUTO-CI
   Lucas Lang             : DCDCAS
   Marvin Lechner         : AUTO-CI (C++ implementation), FIC-MRCC
   Dagmar Lenk            : GEPOL surface, SMD
   Dimitrios Liakos       : Extrapolation schemes; Compound Job, initial MDCI parallelization
   Dimitrios Manganas     : Further ROCIS development; embedding schemes
   Dimitrios Pantazis     : SARC Basis sets
   Anastasios Papadopoulos: AUTO-CI, single reference methods and gradients
   Taras Petrenko         : DFT Hessian,TD-DFT gradient, ASA, ECA, R-Raman, ABS, FL, XAS/XES, NRVS
   Peter Pinski           : DLPNO-MP2, DLPNO-MP2 Gradient
   Christoph Reimann      : Effective Core Potentials
   Marius Retegan         : Local ZFS, SOC
   Christoph Riplinger    : Optimizer, TS searches, QM/MM, DLPNO-CCSD(T), (RO)-DLPNO pert. Triples
   Tobias Risthaus        : Range-separated hybrids, TD-DFT gradient, RPA, STAB
   Michael Roemelt        : Original ROCIS implementation
   Masaaki Saitow         : Open-shell DLPNO-CCSD energy and density
   Barbara Sandhoefer     : DKH picture change effects
   Avijit Sen             : IP-ROCIS
   Kantharuban Sivalingam : CASSCF convergence, NEVPT2, FIC-MRCI
   Bernardo de Souza      : ESD, SOC TD-DFT
   Georgi Stoychev        : AutoAux, RI-MP2 NMR, DLPNO-MP2 response
   Willem Van den Heuvel  : Paramagnetic NMR
   Boris Wezisla          : Elementary symmetry handling
   Frank Wennmohs         : Technical directorship


 We gratefully acknowledge several colleagues who have allowed us to
 interface, adapt or use parts of their codes:
   Stefan Grimme, W. Hujo, H. Kruse, P. Pracht,  : VdW corrections, initial TS optimization,
                  C. Bannwarth, S. Ehlert          DFT functionals, gCP, sTDA/sTD-DF
   Ed Valeev, F. Pavosevic, A. Kumar             : LibInt (2-el integral package), F12 methods
   Garnet Chan, S. Sharma, J. Yang, R. Olivares  : DMRG
   Ulf Ekstrom                                   : XCFun DFT Library
   Mihaly Kallay                                 : mrcc  (arbitrary order and MRCC methods)
   Jiri Pittner, Ondrej Demel                    : Mk-CCSD
   Frank Weinhold                                : gennbo (NPA and NBO analysis)
   Christopher J. Cramer and Donald G. Truhlar   : smd solvation model
   Lars Goerigk                                  : TD-DFT with DH, B97 family of functionals
   V. Asgeirsson, H. Jonsson                     : NEB implementation
   FAccTs GmbH                                   : IRC, NEB, NEB-TS, DLPNO-Multilevel, CI-OPT
                                                   MM, QMMM, 2- and 3-layer-ONIOM, Crystal-QMMM,
                                                   LR-CPCM, SF, NACMEs, symmetry and pop. for TD-DFT,
                                                   nearIR, NL-DFT gradient (VV10), updates on ESD,
                                                   ML-optimized integration grids
   S Lehtola, MJT Oliveira, MAL Marques          : LibXC Library
   Liviu Ungur et al                             : ANISO software


 Your calculation uses the libint2 library for the computation of 2-el integrals
 For citations please refer to: http://libint.valeyev.net

 Your ORCA version has been built with support for libXC version: 5.1.0
 For citations please refer to: https://tddft.org/programs/libxc/

 This ORCA versions uses:
   CBLAS   interface :  Fast vector & matrix operations
   LAPACKE interface :  Fast linear algebra routines
   SCALAPACK package :  Parallel linear algebra routines
   Shared memory     :  Shared parallel matrices
   BLAS/LAPACK       :  OpenBLAS 0.3.15  USE64BITINT DYNAMIC_ARCH NO_AFFINITY Haswell SINGLE_THREADED
        Core in use  :  Haswell
   Copyright (c) 2011-2014, The OpenBLAS Project


================================================================================

----- Orbital basis set information -----
Your calculation utilizes the basis: cc-pVDZ 
       H, B-Ne : Obtained from the ccRepo (grant-hill.group.shef.ac.uk/ccrepo) Feb. 2017
                 T. H. Dunning, Jr., J. Chem. Phys. 90, 1007 (1989)
            He : Obtained from the ccRepo (grant-hill.group.shef.ac.uk/ccrepo) Feb. 2017
                 D. E. Woon, T. H. Dunning, Jr., J. Chem. Phys. 100, 2975 (1994)
  Li-Be, Na-Mg : Obtained from the ccRepo (grant-hill.group.shef.ac.uk/ccrepo) Feb. 2017
                 B. P. Prascher, D. E. Woon, K. A. Peterson, T. H. Dunning, Jr., A. K. Wilson, Theor. Chem. Acc. 128, 69 (2011)
         Al-Ar : Obtained from the ccRepo (grant-hill.group.shef.ac.uk/ccrepo) Feb. 2017
                 D. E. Woon, T. H. Dunning, Jr., J. Chem. Phys. 98, 1358 (1993)
            Ca : Obtained from the Peterson Research Group Website (tyr0.chem.wsu.edu/~kipeters) Feb. 2017
                 J. Koput, K. A. Peterson, J. Phys. Chem. 106, 9595 (2002)
         Sc-Zn : Obtained from the ccRepo (grant-hill.group.shef.ac.uk/ccrepo) Feb. 2017
                 N. B. Balabanov, K. A. Peterson, J. Chem. Phys. 123, 064107 (2005)
                 N. B. Balabanov, K. A. Peterson, J. Chem. Phys. 125, 074110 (2006)
         Ga-Kr : Obtained from the ccRepo (grant-hill.group.shef.ac.uk/ccrepo) Feb. 2017
                 A. K. Wilson, D. E. Woon, K. A. Peterson, T. H. Dunning, Jr., J. Chem. Phys. 110, 7667 (1999)

================================================================================
                                        WARNINGS
                       Please study these warnings very carefully!
================================================================================


WARNING: Analytical Frequencies for this method not available!
  ===> : Switching to Numerical Frequencies!

WARNING: The environment variable RSH_COMMAND is not set!
  ===> : All Displacements for the Numerical Hessian calculation
         will be started on localhost

WARNING: Numerical Frequencies Analysis needs Gradient calculation
  ===> : Will do Numerical Gradient calculation !!!

WARNING: Geometry Optimization
  ===> : Switching off AutoStart
         For restart on a previous wavefunction, please use MOREAD

WARNING: Post HF methods need fully converged wavefunctions
  ===> : Setting SCFConvForced true
         You can overwrite this default with %scf ConvForced false 


WARNING: MDCI localization with Augmented Hessian Foster-Boys
  ===> : Switching off randomization!

INFO   : the flag for use of the SHARK integral package has been found!

================================================================================
                                       INPUT FILE
================================================================================
NAME = Ethanol_orca_CCSD.inp
|  1> ! PAL2
|  2> ! cc-pVDZ CCSD VeryTightSCF NoFrozenCore
|  3> ! Opt Freq
|  4> %elprop dipole true
|  5> end
|  6> %maxcore 4000
|  7> * xyz 0 1
|  8> C  1.011100  0.077080  -0.059530
|  9> C  2.525690  0.079850  -0.066400
| 10> O  3.005810  1.243650  -0.723650
| 11> H  0.625160  -0.805710  0.457800
| 12> H  0.619370  0.085560  -1.081990
| 13> H  0.626450  0.974410  0.436200
| 14> H  2.917510  -0.801850  -0.582510
| 15> H  2.913160  0.081420  0.956540
| 16> H  2.664530  1.228020  -1.634070
| 17> *
| 18> 
| 19> 
| 20>                          ****END OF INPUT****
================================================================================

                       *****************************
                       * Geometry Optimization Run *
                       *****************************

Geometry optimization settings:
Update method            Update   .... BFGS
Choice of coordinates    CoordSys .... Z-matrix Internals
Initial Hessian          InHess   .... Almoef's Model

Convergence Tolerances:
Energy Change            TolE     ....  5.0000e-06 Eh
Max. Gradient            TolMAXG  ....  3.0000e-04 Eh/bohr
RMS Gradient             TolRMSG  ....  1.0000e-04 Eh/bohr
Max. Displacement        TolMAXD  ....  4.0000e-03 bohr
RMS Displacement         TolRMSD  ....  2.0000e-03 bohr
Strict Convergence                ....  False
------------------------------------------------------------------------------
                        ORCA OPTIMIZATION COORDINATE SETUP
------------------------------------------------------------------------------

The optimization will be done in new redundant internal coordinates
Making redundant internal coordinates   ...  (new redundants) done
Evaluating the initial hessian          ...  (Almloef) done
Evaluating the coordinates              ...  done
Calculating the B-matrix                .... done
Calculating the G-matrix                .... done
Diagonalizing the G-matrix              .... done
The first mode is                       ....   12
The number of degrees of freedom        ....   21

    -----------------------------------------------------------------
                    Redundant Internal Coordinates


    -----------------------------------------------------------------
         Definition                    Initial Value    Approx d2E/dq
    -----------------------------------------------------------------
      1. B(C   1,C   0)                  1.5146         0.395307   
      2. B(O   2,C   1)                  1.4202         0.500862   
      3. B(H   3,C   0)                  1.0936         0.355406   
      4. B(H   4,C   0)                  1.0950         0.353591   
      5. B(H   5,C   0)                  1.0949         0.353617   
      6. B(H   6,C   1)                  1.0942         0.354578   
      7. B(H   7,C   1)                  1.0939         0.355023   
      8. B(H   8,O   2)                  0.9724         0.496784   
      9. A(C   1,C   0,H   5)          110.6003         0.326372   
     10. A(H   3,C   0,H   4)          108.7678         0.289412   
     11. A(H   3,C   0,H   5)          108.8690         0.289415   
     12. A(C   1,C   0,H   4)          110.7016         0.326368   
     13. A(C   1,C   0,H   3)          110.8875         0.326643   
     14. A(H   4,C   0,H   5)          106.9023         0.289183   
     15. A(H   6,C   1,H   7)          108.3854         0.289489   
     16. A(C   0,C   1,O   2)          109.9782         0.383509   
     17. A(O   2,C   1,H   7)          108.1712         0.337596   
     18. A(C   0,C   1,H   7)          110.4859         0.326585   
     19. A(O   2,C   1,H   6)          108.7220         0.337526   
     20. A(C   0,C   1,H   6)          111.0233         0.326518   
     21. A(C   1,O   2,H   8)          107.5458         0.354112   
     22. D(H   6,C   1,C   0,H   5)   -178.5775         0.012410   
     23. D(O   2,C   1,C   0,H   4)     60.0936         0.012410   
     24. D(H   6,C   1,C   0,H   3)     60.5425         0.012410   
     25. D(O   2,C   1,C   0,H   3)   -179.0862         0.012410   
     26. D(O   2,C   1,C   0,H   5)    -58.2062         0.012410   
     27. D(H   7,C   1,C   0,H   3)    -59.7424         0.012410   
     28. D(H   7,C   1,C   0,H   4)    179.4374         0.012410   
     29. D(H   7,C   1,C   0,H   5)     61.1376         0.012410   
     30. D(H   6,C   1,C   0,H   4)    -60.2777         0.012410   
     31. D(H   8,O   2,C   1,H   7)    179.3775         0.019835   
     32. D(H   8,O   2,C   1,H   6)     61.8776         0.019835   
     33. D(H   8,O   2,C   1,C   0)    -59.8749         0.019835   
    -----------------------------------------------------------------

Number of atoms                         .... 9
Number of degrees of freedom            .... 33

         *************************************************************
         *                GEOMETRY OPTIMIZATION CYCLE   1            *
         *************************************************************
---------------------------------
CARTESIAN COORDINATES (ANGSTROEM)
---------------------------------
  C      1.011100    0.077080   -0.059530
  C      2.525690    0.079850   -0.066400
  O      3.005810    1.243650   -0.723650
  H      0.625160   -0.805710    0.457800
  H      0.619370    0.085560   -1.081990
  H      0.626450    0.974410    0.436200
  H      2.917510   -0.801850   -0.582510
  H      2.913160    0.081420    0.956540
  H      2.664530    1.228020   -1.634070

----------------------------
CARTESIAN COORDINATES (A.U.)
----------------------------
  NO LB      ZA    FRAG     MASS         X           Y           Z
   0 C     6.0000    0    12.011    1.910702    0.145660   -0.112495
   1 C     6.0000    0    12.011    4.772862    0.150895   -0.125478
   2 O     8.0000    0    15.999    5.680158    2.350158   -1.367500
   3 H     1.0000    0     1.008    1.181381   -1.522571    0.865117
   4 H     1.0000    0     1.008    1.170440    0.161685   -2.044665
   5 H     1.0000    0     1.008    1.183819    1.841368    0.824299
   6 H     1.0000    0     1.008    5.513295   -1.515277   -1.100784
   7 H     1.0000    0     1.008    5.505075    0.153862    1.807599
   8 H     1.0000    0     1.008    5.035232    2.320621   -3.087945

--------------------------------
INTERNAL COORDINATES (ANGSTROEM)
--------------------------------
 C      0   0   0     0.000000000000     0.00000000     0.00000000
 C      1   0   0     1.514608113639     0.00000000     0.00000000
 O      2   1   0     1.420184219353   109.97820191     0.00000000
 H      1   2   3     1.093571303848   110.88754780   180.91384980
 H      1   2   3     1.094965184332   110.70164780    60.09363525
 H      1   2   3     1.094945196939   110.60030942   301.79384854
 H      2   1   3     1.094206257750   111.02329775   239.62862416
 H      2   1   3     1.093865489628   110.48594168   119.34376283
 H      3   2   1     0.972409847595   107.54581126   300.12505932

---------------------------
INTERNAL COORDINATES (A.U.)
---------------------------
 C      0   0   0     0.000000000000     0.00000000     0.00000000
 C      1   0   0     2.862194534992     0.00000000     0.00000000
 O      2   1   0     2.683759234294   109.97820191     0.00000000
 H      1   2   3     2.066550272188   110.88754780   180.91384980
 H      1   2   3     2.069184324567   110.70164780    60.09363525
 H      1   2   3     2.069146553867   110.60030942   301.79384854
 H      2   1   3     2.067750161171   111.02329775   239.62862416
 H      2   1   3     2.067106202745   110.48594168   119.34376283
 H      3   2   1     1.837588301883   107.54581126   300.12505932

---------------------
BASIS SET INFORMATION
---------------------
There are 3 groups of distinct atoms

 Group   1 Type C   : 17s4p1d contracted to 3s2p1d pattern {881/31/1}
 Group   2 Type O   : 17s4p1d contracted to 3s2p1d pattern {881/31/1}
 Group   3 Type H   : 4s1p contracted to 2s1p pattern {31/1}

Atom   0C    basis set group =>   1
Atom   1C    basis set group =>   1
Atom   2O    basis set group =>   2
Atom   3H    basis set group =>   3
Atom   4H    basis set group =>   3
Atom   5H    basis set group =>   3
Atom   6H    basis set group =>   3
Atom   7H    basis set group =>   3
Atom   8H    basis set group =>   3


           ************************************************************
           *        Program running with 2 parallel MPI-processes     *
           *              working on a common directory               *
           ************************************************************
------------------------------------------------------------------------------
                           ORCA GTO INTEGRAL CALCULATION
------------------------------------------------------------------------------
------------------------------------------------------------------------------
                   ___                                                        
                  /   \      - P O W E R E D   B Y -                         
                 /     \                                                     
                 |  |  |   _    _      __       _____    __    __             
                 |  |  |  | |  | |    /  \     |  _  \  |  |  /  |          
                  \  \/   | |  | |   /    \    | | | |  |  | /  /          
                 / \  \   | |__| |  /  /\  \   | |_| |  |  |/  /          
                |  |  |   |  __  | /  /__\  \  |    /   |      \           
                |  |  |   | |  | | |   __   |  |    \   |  |\   \          
                \     /   | |  | | |  |  |  |  | |\  \  |  | \   \       
                 \___/    |_|  |_| |__|  |__|  |_| \__\ |__|  \__/        
                                                                              
                      - O R C A' S   B I G   F R I E N D -                    
                                      &                                       
                       - I N T E G R A L  F E E D E R -                       
                                                                              
 v1 FN, 2020, v2 2021                                                         
------------------------------------------------------------------------------


Reading SHARK input file Ethanol_orca_CCSD.SHARKINP.tmp ... ok
----------------------
SHARK INTEGRAL PACKAGE
----------------------

Number of atoms                             ...      9
Number of basis functions                   ...     72
Number of shells                            ...     36
Maximum angular momentum                    ...      2
Integral batch strategy                     ... SHARK/LIBINT Hybrid
RI-J (if used) integral strategy            ... SPLIT-RIJ (Revised 2003 algorithm where possible)
Printlevel                                  ...      1
Contraction scheme used                     ... SEGMENTED contraction
Coulomb Range Separation                    ... NOT USED
Exchange Range Separation                   ... NOT USED
Finite Nucleus Model                        ... NOT USED
Auxiliary Coulomb fitting basis             ... NOT available
Auxiliary J/K fitting basis                 ... NOT available
Auxiliary Correlation fitting basis         ... NOT available
Auxiliary 'external' fitting basis          ... NOT available
Integral threshold                          ...     1.000000e-12
Primitive cut-off                           ...     1.000000e-14
Primitive pair pre-selection threshold      ...     1.000000e-14

Calculating pre-screening integrals         ... done (  0.0 sec) Dimension = 36
Organizing shell pair data                  ... done (  0.0 sec)
Shell pair information
Total number of shell pairs                 ...       666
Shell pairs after pre-screening             ...       666
Total number of primitive shell pairs       ...      4851
Primitive shell pairs kept                  ...      3902
          la=0 lb=0:    231 shell pairs
          la=1 lb=0:    252 shell pairs
          la=1 lb=1:     78 shell pairs
          la=2 lb=0:     63 shell pairs
          la=2 lb=1:     36 shell pairs
          la=2 lb=2:      6 shell pairs

Calculating one electron integrals          ... done (  0.0 sec)
Calculating Nuclear repulsion               ... done (  0.0 sec) ENN=     82.024064961850 Eh

SHARK setup successfully completed in   0.1 seconds

Maximum memory used throughout the entire GTOINT-calculation: 11.0 MB


           ************************************************************
           *        Program running with 2 parallel MPI-processes     *
           *              working on a common directory               *
           ************************************************************
-------------------------------------------------------------------------------
                                 ORCA SCF
-------------------------------------------------------------------------------

------------
SCF SETTINGS
------------
Hamiltonian:
 Ab initio Hamiltonian  Method          .... Hartree-Fock(GTOs)


General Settings:
 Integral files         IntName         .... Ethanol_orca_CCSD
 Hartree-Fock type      HFTyp           .... RHF
 Total Charge           Charge          ....    0
 Multiplicity           Mult            ....    1
 Number of Electrons    NEL             ....   26
 Basis Dimension        Dim             ....   72
 Nuclear Repulsion      ENuc            ....     82.0240649618 Eh

Convergence Acceleration:
 DIIS                   CNVDIIS         .... on
   Start iteration      DIISMaxIt       ....    12
   Startup error        DIISStart       ....  0.200000
   # of expansion vecs  DIISMaxEq       ....     5
   Bias factor          DIISBfac        ....   1.050
   Max. coefficient     DIISMaxC        ....  10.000
 Trust-Rad. Augm. Hess. CNVTRAH         .... auto
   Auto Start mean grad. ratio tolernc. ....  1.125000
   Auto Start start iteration           ....    20
   Auto Start num. interpolation iter.  ....    10
   Max. Number of Micro iterations      ....    16
   Max. Number of Macro iterations      .... Maxiter - #DIIS iter
   Number of Davidson start vectors     ....     2
   Converg. threshold I  (grad. norm)   ....   2.000e-06
   Converg. threshold II (energy diff.) ....   1.000e-09
   Grad. Scal. Fac. for Micro threshold ....   0.100
   Minimum threshold for Micro iter.    ....   0.010
   NR start threshold (gradient norm)   ....   0.001
   Initial trust radius                 ....   0.400
   Minimum AH scaling param. (alpha)    ....   1.000
   Maximum AH scaling param. (alpha)    .... 1000.000
   Orbital update algorithm             .... Taylor
   White noise on init. David. guess    .... on
   Maximum white noise                  ....   0.010
   Quad. conv. algorithm                .... NR
 SOSCF                  CNVSOSCF        .... on
   Start iteration      SOSCFMaxIt      ....   150
   Startup grad/error   SOSCFStart      ....  0.003300
 Level Shifting         CNVShift        .... on
   Level shift para.    LevelShift      ....    0.2500
   Turn off err/grad.   ShiftErr        ....    0.0010
 Zerner damping         CNVZerner       .... off
 Static damping         CNVDamp         .... on
   Fraction old density DampFac         ....    0.7000
   Max. Damping (<1)    DampMax         ....    0.9800
   Min. Damping (>=0)   DampMin         ....    0.0000
   Turn off err/grad.   DampErr         ....    0.1000
 Fernandez-Rico         CNVRico         .... off

SCF Procedure:
 Maximum # iterations   MaxIter         ....   125
 SCF integral mode      SCFMode         .... Direct
   Integral package                     .... SHARK and LIBINT hybrid scheme
 Reset frequency        DirectResetFreq ....    20
 Integral Threshold     Thresh          ....  1.000e-12 Eh
 Primitive CutOff       TCut            ....  1.000e-14 Eh

Convergence Tolerance:
 Convergence Check Mode ConvCheckMode   .... Total+1el-Energy
 Convergence forced     ConvForced      .... 1
 Energy Change          TolE            ....  1.000e-09 Eh
 1-El. energy change                    ....  1.000e-06 Eh
 Orbital Gradient       TolG            ....  2.000e-06
 Orbital Rotation angle TolX            ....  2.000e-06
 DIIS Error             TolErr          ....  1.000e-08


Diagonalization of the overlap matrix:
Smallest eigenvalue                        ... 6.374e-03
Time for diagonalization                   ...    0.002 sec
Threshold for overlap eigenvalues          ... 1.000e-08
Number of eigenvalues below threshold      ... 0
Time for construction of square roots      ...    0.001 sec
Total time needed                          ...    0.003 sec

Time for model grid setup =    0.042 sec

------------------------------
INITIAL GUESS: MODEL POTENTIAL
------------------------------
Loading Hartree-Fock densities                     ... done
Calculating cut-offs                               ... done
Initializing the effective Hamiltonian             ... done
Setting up the integral package (SHARK)            ... done
Starting the Coulomb interaction                   ... done (   0.0 sec)
Reading the grid                                   ... done
Mapping shells                                     ... done
Starting the XC term evaluation                    ... done (   0.0 sec)
Transforming the Hamiltonian                       ... done (   0.0 sec)
Diagonalizing the Hamiltonian                      ... done (   0.0 sec)
Back transforming the eigenvectors                 ... done (   0.0 sec)
Now organizing SCF variables                       ... done
                      ------------------
                      INITIAL GUESS DONE (   0.1 sec)
                      ------------------
--------------
SCF ITERATIONS
--------------
ITER       Energy         Delta-E        Max-DP      RMS-DP      [F,P]     Damp
               ***  Starting incremental Fock matrix formation  ***
  0   -153.9249981411   0.000000000000 0.05547365  0.00265417  0.2437447 0.7000
  1   -153.9846079373  -0.059609796207 0.04231145  0.00197731  0.1556782 0.7000
                               ***Turning on DIIS***
  2   -154.0198980255  -0.035290088286 0.09066184  0.00411797  0.0929235 0.0000
  3   -153.7796085936   0.240289431962 0.02478614  0.00120207  0.0457958 0.0000
  4   -154.0726994424  -0.293090848775 0.00462688  0.00027970  0.0058270 0.0000
                      *** Initiating the SOSCF procedure ***
                           *** Shutting down DIIS ***
                      *** Re-Reading the Fockian *** 
                      *** Removing any level shift *** 
ITER      Energy       Delta-E        Grad      Rot      Max-DP    RMS-DP
  5   -154.08791711  -0.0152176645  0.001090  0.001090  0.002143  0.000130
               *** Restarting incremental Fock matrix formation ***
  6   -154.09094728  -0.0030301732  0.000347  0.000358  0.000994  0.000059
  7   -154.09095162  -0.0000043350  0.000175  0.000233  0.000639  0.000039
  8   -154.09095239  -0.0000007788  0.000043  0.000037  0.000137  0.000007
  9   -154.09095245  -0.0000000515  0.000008  0.000012  0.000021  0.000001
 10   -154.09095245  -0.0000000024  0.000002  0.000006  0.000017  0.000001
 11   -154.09095245  -0.0000000004  0.000001  0.000001  0.000003  0.000000
                  ***Gradient check signals convergence***
              ***Rediagonalizing the Fockian in SOSCF/NRSCF***

               *****************************************************
               *                     SUCCESS                       *
               *           SCF CONVERGED AFTER  12 CYCLES          *
               *****************************************************


----------------
TOTAL SCF ENERGY
----------------

Total Energy       :         -154.09095245 Eh           -4193.02799 eV

Components:
Nuclear Repulsion  :           82.02406496 Eh            2231.98828 eV
Electronic Energy  :         -236.11501741 Eh           -6425.01627 eV
One Electron Energy:         -371.98007877 Eh          -10122.09254 eV
Two Electron Energy:          135.86506136 Eh            3697.07628 eV

Virial components:
Potential Energy   :         -308.03764165 Eh           -8382.13037 eV
Kinetic Energy     :          153.94668921 Eh            4189.10238 eV
Virial Ratio       :            2.00093710


---------------
SCF CONVERGENCE
---------------

  Last Energy change         ...   -1.1653e-11  Tolerance :   1.0000e-09
  Last MAX-Density change    ...    5.5150e-07  Tolerance :   1.0000e-08
  Last RMS-Density change    ...    3.2354e-08  Tolerance :   1.0000e-09
  Last Orbital Gradient      ...    2.6487e-07  Tolerance :   2.0000e-06
  Last Orbital Rotation      ...    3.0914e-07  Tolerance :   2.0000e-06

             **** THE GBW FILE WAS UPDATED (Ethanol_orca_CCSD.gbw) ****
             **** DENSITY Ethanol_orca_CCSD.scfp WAS UPDATED ****
             **** ENERGY FILE WAS UPDATED (Ethanol_orca_CCSD.en.tmp) ****
             **** THE GBW FILE WAS UPDATED (Ethanol_orca_CCSD.gbw) ****
             **** DENSITY Ethanol_orca_CCSD.scfp WAS UPDATED ****
----------------
ORBITAL ENERGIES
----------------

  NO   OCC          E(Eh)            E(eV) 
   0   2.0000     -20.547188      -559.1174 
   1   2.0000     -11.276035      -306.8365 
   2   2.0000     -11.223861      -305.4168 
   3   2.0000      -1.349523       -36.7224 
   4   2.0000      -1.010027       -27.4842 
   5   2.0000      -0.843611       -22.9558 
   6   2.0000      -0.678840       -18.4722 
   7   2.0000      -0.620752       -16.8915 
   8   2.0000      -0.602610       -16.3978 
   9   2.0000      -0.538787       -14.6611 
  10   2.0000      -0.522997       -14.2315 
  11   2.0000      -0.475598       -12.9417 
  12   2.0000      -0.435149       -11.8410 
  13   0.0000       0.178640         4.8610 
  14   0.0000       0.217146         5.9088 
  15   0.0000       0.233800         6.3620 
  16   0.0000       0.255320         6.9476 
  17   0.0000       0.266852         7.2614 
  18   0.0000       0.286473         7.7953 
  19   0.0000       0.381452        10.3798 
  20   0.0000       0.400696        10.9035 
  21   0.0000       0.596031        16.2188 
  22   0.0000       0.615025        16.7357 
  23   0.0000       0.665622        18.1125 
  24   0.0000       0.729394        19.8478 
  25   0.0000       0.750183        20.4135 
  26   0.0000       0.810353        22.0508 
  27   0.0000       0.850284        23.1374 
  28   0.0000       0.881814        23.9954 
  29   0.0000       0.886861        24.1327 
  30   0.0000       0.897110        24.4116 
  31   0.0000       0.910381        24.7727 
  32   0.0000       0.929549        25.2943 
  33   0.0000       1.119231        30.4558 
  34   0.0000       1.140714        31.0404 
  35   0.0000       1.167345        31.7651 
  36   0.0000       1.278503        34.7898 
  37   0.0000       1.328205        36.1423 
  38   0.0000       1.382222        37.6122 
  39   0.0000       1.460345        39.7380 
  40   0.0000       1.508171        41.0394 
  41   0.0000       1.570053        42.7233 
  42   0.0000       1.650605        44.9152 
  43   0.0000       1.686694        45.8973 
  44   0.0000       1.743723        47.4491 
  45   0.0000       1.853570        50.4382 
  46   0.0000       1.875578        51.0371 
  47   0.0000       1.897840        51.6429 
  48   0.0000       1.931584        52.5611 
  49   0.0000       1.942354        52.8542 
  50   0.0000       1.953862        53.1673 
  51   0.0000       1.974532        53.7297 
  52   0.0000       2.046636        55.6918 
  53   0.0000       2.091249        56.9058 
  54   0.0000       2.157111        58.6980 
  55   0.0000       2.262925        61.5773 
  56   0.0000       2.276166        61.9376 
  57   0.0000       2.347299        63.8733 
  58   0.0000       2.420939        65.8771 
  59   0.0000       2.510362        68.3104 
  60   0.0000       2.523110        68.6573 
  61   0.0000       2.542698        69.1903 
  62   0.0000       2.751375        74.8687 
  63   0.0000       2.768424        75.3327 
  64   0.0000       2.830785        77.0296 
  65   0.0000       2.882084        78.4255 
  66   0.0000       2.916356        79.3581 
  67   0.0000       3.316091        90.2354 
  68   0.0000       3.400128        92.5222 
  69   0.0000       3.456433        94.0543 
  70   0.0000       3.630453        98.7897 
  71   0.0000       4.094700       111.4225 

                    ********************************
                    * MULLIKEN POPULATION ANALYSIS *
                    ********************************

-----------------------
MULLIKEN ATOMIC CHARGES
-----------------------
   0 C :   -0.082270
   1 C :    0.172700
   2 O :   -0.395959
   3 H :    0.026978
   4 H :    0.018873
   5 H :    0.043092
   6 H :    0.014561
   7 H :    0.038335
   8 H :    0.163690
Sum of atomic charges:   -0.0000000

--------------------------------
MULLIKEN REDUCED ORBITAL CHARGES
--------------------------------
  0 C s       :     3.059079  s :     3.059079
      pz      :     0.995961  p :     2.963112
      px      :     0.958165
      py      :     1.008987
      dz2     :     0.011921  d :     0.060079
      dxz     :     0.012066
      dyz     :     0.009160
      dx2y2   :     0.016926
      dxy     :     0.010005
  1 C s       :     3.033845  s :     3.033845
      pz      :     0.958034  p :     2.661249
      px      :     0.930846
      py      :     0.772370
      dz2     :     0.023862  d :     0.132206
      dxz     :     0.019687
      dyz     :     0.026296
      dx2y2   :     0.035862
      dxy     :     0.026499
  2 O s       :     3.736282  s :     3.736282
      pz      :     1.266680  p :     4.645046
      px      :     1.802944
      py      :     1.575422
      dz2     :     0.003901  d :     0.014631
      dxz     :     0.002876
      dyz     :     0.002226
      dx2y2   :     0.002726
      dxy     :     0.002901
  3 H s       :     0.942204  s :     0.942204
      pz      :     0.008800  p :     0.030819
      px      :     0.006692
      py      :     0.015326
  4 H s       :     0.950577  s :     0.950577
      pz      :     0.018346  p :     0.030549
      px      :     0.006743
      py      :     0.005460
  5 H s       :     0.926458  s :     0.926458
      pz      :     0.008349  p :     0.030450
      px      :     0.006103
      py      :     0.015998
  6 H s       :     0.957252  s :     0.957252
      pz      :     0.007689  p :     0.028187
      px      :     0.006539
      py      :     0.013960
  7 H s       :     0.932853  s :     0.932853
      pz      :     0.019209  p :     0.028812
      px      :     0.006445
      py      :     0.003158
  8 H s       :     0.756123  s :     0.756123
      pz      :     0.042563  p :     0.080186
      px      :     0.022374
      py      :     0.015249


                     *******************************
                     * LOEWDIN POPULATION ANALYSIS *
                     *******************************

----------------------
LOEWDIN ATOMIC CHARGES
----------------------
   0 C :   -0.067410
   1 C :    0.012040
   2 O :   -0.086107
   3 H :    0.023577
   4 H :    0.016723
   5 H :    0.026206
   6 H :    0.005072
   7 H :    0.020886
   8 H :    0.049012

-------------------------------
LOEWDIN REDUCED ORBITAL CHARGES
-------------------------------
  0 C s       :     2.802606  s :     2.802606
      pz      :     1.042777  p :     3.104126
      px      :     1.014068
      py      :     1.047282
      dz2     :     0.032141  d :     0.160677
      dxz     :     0.031994
      dyz     :     0.026467
      dx2y2   :     0.041950
      dxy     :     0.028126
  1 C s       :     2.802034  s :     2.802034
      pz      :     0.999745  p :     2.878490
      px      :     0.999700
      py      :     0.879045
      dz2     :     0.058055  d :     0.307436
      dxz     :     0.045017
      dyz     :     0.055711
      dx2y2   :     0.087581
      dxy     :     0.061073
  2 O s       :     3.405475  s :     3.405475
      pz      :     1.329237  p :     4.654967
      px      :     1.757443
      py      :     1.568288
      dz2     :     0.008867  d :     0.025665
      dxz     :     0.005460
      dyz     :     0.003845
      dx2y2   :     0.003767
      dxy     :     0.003725
  3 H s       :     0.897708  s :     0.897708
      pz      :     0.022498  p :     0.078714
      px      :     0.020283
      py      :     0.035932
  4 H s       :     0.905121  s :     0.905121
      pz      :     0.042208  p :     0.078157
      px      :     0.020330
      py      :     0.015619
  5 H s       :     0.895043  s :     0.895043
      pz      :     0.021767  p :     0.078750
      px      :     0.019617
      py      :     0.037367
  6 H s       :     0.918917  s :     0.918917
      pz      :     0.021188  p :     0.076011
      px      :     0.019388
      py      :     0.035435
  7 H s       :     0.904101  s :     0.904101
      pz      :     0.044927  p :     0.075014
      px      :     0.019183
      py      :     0.010904
  8 H s       :     0.747801  s :     0.747801
      pz      :     0.096220  p :     0.203186
      px      :     0.062238
      py      :     0.044728


                      *****************************
                      * MAYER POPULATION ANALYSIS *
                      *****************************

  NA   - Mulliken gross atomic population
  ZA   - Total nuclear charge
  QA   - Mulliken gross atomic charge
  VA   - Mayer's total valence
  BVA  - Mayer's bonded valence
  FA   - Mayer's free valence

  ATOM       NA         ZA         QA         VA         BVA        FA
  0 C      6.0823     6.0000    -0.0823     3.9969     3.9969     0.0000
  1 C      5.8273     6.0000     0.1727     4.0072     4.0072    -0.0000
  2 O      8.3960     8.0000    -0.3960     1.9958     1.9958     0.0000
  3 H      0.9730     1.0000     0.0270     0.9779     0.9779    -0.0000
  4 H      0.9811     1.0000     0.0189     0.9797     0.9797    -0.0000
  5 H      0.9569     1.0000     0.0431     0.9791     0.9791    -0.0000
  6 H      0.9854     1.0000     0.0146     0.9608     0.9608    -0.0000
  7 H      0.9617     1.0000     0.0383     0.9697     0.9697    -0.0000
  8 H      0.8363     1.0000     0.1637     1.0212     1.0212    -0.0000

  Mayer bond orders larger than 0.100000
B(  0-C ,  1-C ) :   1.0663 B(  0-C ,  3-H ) :   0.9762 B(  0-C ,  4-H ) :   0.9799 
B(  0-C ,  5-H ) :   0.9790 B(  1-C ,  2-O ) :   0.9749 B(  1-C ,  6-H ) :   0.9746 
B(  1-C ,  7-H ) :   0.9740 B(  2-O ,  8-H ) :   1.0002 

-------
TIMINGS
-------

Total SCF time: 0 days 0 hours 0 min 3 sec 

Total time                  ....       3.062 sec
Sum of individual times     ....       2.899 sec  ( 94.7%)

Fock matrix formation       ....       2.783 sec  ( 90.9%)
Diagonalization             ....       0.010 sec  (  0.3%)
Density matrix formation    ....       0.001 sec  (  0.0%)
Population analysis         ....       0.003 sec  (  0.1%)
Initial guess               ....       0.043 sec  (  1.4%)
Orbital Transformation      ....       0.000 sec  (  0.0%)
Orbital Orthonormalization  ....       0.000 sec  (  0.0%)
DIIS solution               ....       0.008 sec  (  0.3%)
SOSCF solution              ....       0.009 sec  (  0.3%)

Maximum memory used throughout the entire SCF-calculation: 225.4 MB


           ************************************************************
           *        Program running with 2 parallel MPI-processes     *
           *              working on a common directory               *
           ************************************************************


------------------------------------------------------------------------------- 
                              ORCA-MATRIX DRIVEN CI                            
------------------------------------------------------------------------------- 

--------------------------------
AUTOMATIC CHOICE OF INCORE LEVEL
--------------------------------

Memory available                           ...   2000.00 MB
Memory needed for S+T                      ...      7.25 MB
Memory needed for J+K                      ...     14.58 MB
Memory needed for DIIS                     ...    101.50 MB
Memory needed for 3-ext                    ...     20.37 MB
Memory needed for 4-ext                    ...     47.01 MB
Memory needed for triples                  ...      0.00 MB
 -> Final InCoreLevel    ... 5

Wavefunction type
-----------------
Correlation treatment                      ...      CCSD     
Single excitations                         ... ON
Orbital optimization                       ... OFF
Calculation of Z vector                    ... OFF
Calculation of Brueckner orbitals          ... OFF
Perturbative triple excitations            ... OFF
Calculation of F12 correction              ... OFF
Frozen core treatment                      ... NO frozen core
Reference Wavefunction                     ... RHF
  Internal Orbitals:     0 ...   12 ( 13 MO's/ 26 electrons)
  Virtual  Orbitals:    13 ...   71 ( 59 MO's              )
Number of AO's                             ...     72
Number of electrons                        ...     26
Number of correlated electrons             ...     26

Algorithmic settings
--------------------
Integral transformation                    ... AO direct full transformation
K(C) Formation                             ... FULL-MO TRAFO
Maximum number of iterations               ...        50
Convergence tolerance (max. residuum)      ... 1.000e-06
Level shift for amplitude update           ... 2.000e-01
Maximum number of DIIS vectors             ...         7
DIIS turned on at iteration                ...         0
Damping before turning on DIIS             ...     0.500
Damping after turning on DIIS              ...     0.000
Pair specific amplitude update             ... OFF
Natural orbital iterations                 ... OFF
Perturbative natural orbital generation    ... OFF
Printlevel                                 ... 2

Memory handling:
----------------
Maximum memory for working arrays          ...   2000 MB
Data storage in matrix containers          ... UNCOMPRESSED
Data type for integral storage             ... DOUBLE
In-Core Storage of quantities:
   Amplitudes+Sigma Vector      ... YES
   J+K operators                ... YES
   DIIS vectors                 ... YES
   3-external integrals         ... YES
   4-external integrals         ... YES


Initializing the integral package          ... done
Warning: reference  - re-canonicalizations have been set to INT 1 VIRT 1

--------------------------
CLOSED-SHELL FOCK OPERATOR
--------------------------

Restoring SHARK [2] ... ok
Recanonicalizing the internal orbitals
Recanonicalizing the virtual orbitals
Time needed for Fock operator              ...            0.302 sec
Reference energy                           ...   -154.090952448

------------------------------
PARTIAL COULOMB TRANSFORMATION
------------------------------

Transformation type                        ... one-operator
Dimension of the basis                     ...   72
Number of internal MOs                     ...   72 (0-71)
<ss|**>: Pair cutoff                                ... 0.000e+00 Eh
Number of AO pairs included in the trafo   ... 2628
Total Number of distinct AO pairs          ... 2628
Memory devoted for trafo                   ... 2000.0 MB 
Max. Number of MO pairs treated together   ... 99750      
Max. Number of MOs treated per batch       ... 1385      
Number Format for Storage                  ... Double (8 Byte)
AO-integral source                         ... DIRECT
Integral package used                      ... LIBINT

Starting integral evaluation:
      153846 b        0 skpd     0.232 s (  0.002 ms/b)
<sp|**>: <sd|**>:       167832 b        0 skpd     0.276 s (  0.002 ms/b)
       41958 b        0 skpd     0.086 s (  0.002 ms/b)
<pp|**>:        51948 b        0 skpd     0.106 s (  0.002 ms/b)
<pd|**>:        23976 b        0 skpd     0.072 s (  0.003 ms/b)
<dd|**>:         3996 b        0 skpd     0.016 s (  0.004 ms/b)
Closing buffer AOJ ( 0.05 GB; CompressionRatio= 1.00)
Collecting buffer AOJ 
    ... done with AO integral generation
Number of MO pairs included in the trafo   ... 2628
    ... Now sorting integrals
IBATCH = 1 of  1
Closing buffer JAO ( 0.05 GB; CompressionRatio= 1.00)
Collecting buffer JAO 
TOTAL TIME for half transformation         ...     0.983 sec
AO-integral generation                     ...     0.638 sec
Half transformation                        ...     0.150 sec
J-integral sorting                         ...     0.188 sec

-------------------------- SECOND HALF TRANSFORMATION -------------------------
Formation of (pq|rs)                       ... ok (     0.145 sec)
Integral sorting                           ... ok (     0.296 sec)

------------------
CLOSED SHELL GUESS
------------------

Initial guess performed in     0.003 sec
E(0)                                       ...   -154.090952448
E(MP2)                                     ...     -0.488983454
Initial E(tot)                             ...   -154.579935903
<T|T>                                      ...      0.145971423
Number of pairs included                   ... 91
Total number of pairs                      ... 91

------------------------------------------------
                  RHF COUPLED CLUSTER ITERATIONS
------------------------------------------------

Number of amplitudes to be optimized       ... 317538

Iter       E(tot)           E(Corr)          Delta-E          Residual     Time
  0   -154.579935903     -0.488983454      0.000000000      0.009561035    0.56
                           *** Turning on DIIS ***
  1   -154.601445248     -0.510492800     -0.021509346      0.002182433    0.87
  2   -154.614360211     -0.523407763     -0.012914962      0.000874197    0.90
  3   -154.616687165     -0.525734717     -0.002326954      0.000199359    0.90
  4   -154.617060286     -0.526107838     -0.000373121      0.000141027    0.92
  5   -154.617090408     -0.526137960     -0.000030122      0.000061811    0.92
  6   -154.617097300     -0.526144852     -0.000006892      0.000034121    0.94
  7   -154.617098732     -0.526146284     -0.000001432      0.000015111    0.94
  8   -154.617098927     -0.526146479     -0.000000195      0.000006007    1.02
  9   -154.617099008     -0.526146559     -0.000000080      0.000002048    1.04
 10   -154.617099034     -0.526146586     -0.000000026      0.000000720    1.03
               --- The Coupled-Cluster iterations have converged ---

----------------------
COUPLED CLUSTER ENERGY
----------------------

E(0)                                       ...   -154.090952448
E(CORR)                                    ...     -0.526146586
E(TOT)                                     ...   -154.617099034
Singles Norm <S|S>**1/2                    ...      0.036400831  
T1 diagnostic                              ...      0.007138790  

------------------
LARGEST AMPLITUDES
------------------
   7-> 19   7-> 19       0.018050
   9-> 21   9-> 21       0.017314
  10-> 28  10-> 28       0.017257
  10-> 17  10-> 17       0.015534
  12-> 37  12-> 37       0.015410
   9-> 29   9-> 29       0.014456
   6-> 19   6-> 19       0.013967
  10-> 23  10-> 23       0.013581
   8-> 20   8-> 20       0.013214
   7-> 25   7-> 25       0.012783
  10-> 21  10-> 21       0.012515
  11-> 21  11-> 21       0.012216
  10-> 28  10-> 17       0.011759
  10-> 17  10-> 28       0.011759
   5-> 30   5-> 30       0.011632
  11-> 31  11-> 31       0.011622


        !!!!!!!!!!!!!!!!!!!!!!!!!!!!!!!!!!!!!!!!!!!!!!!!!!!!!!!!!!!!!!!!!!!!!!!!!! 
        !  Warning: Densities are linearized densities !                         !
        !!!!!!!!!!!!!!!!!!!!!!!!!!!!!!!!!!!!!!!!!!!!!!!!!!!!!!!!!!!!!!!!!!!!!!!!!! 

Trace of internal density part =     -0.355784109
Trace of external density part =      0.355784109
NORM  =      1.179217075 sqrt=     1.085917619
W(HF) =      0.848020285
------------------------------------------------------------------------------
                           ORCA POPULATION ANALYSIS
------------------------------------------------------------------------------
Input electron density              ... Ethanol_orca_CCSD.mdcip
BaseName (.gbw .S,...)              ... Ethanol_orca_CCSD

                    ********************************
                    * MULLIKEN POPULATION ANALYSIS *
                    ********************************

-----------------------
MULLIKEN ATOMIC CHARGES
-----------------------
   0 C :   -0.101395
   1 C :    0.104847
   2 O :   -0.301067
   3 H :    0.029204
   4 H :    0.023838
   5 H :    0.045496
   6 H :    0.015420
   7 H :    0.040544
   8 H :    0.143112
Sum of atomic charges:   -0.0000000

--------------------------------
MULLIKEN REDUCED ORBITAL CHARGES
--------------------------------
  0 C s       :     3.045496  s :     3.045496
      pz      :     0.999637  p :     2.979127
      px      :     0.968351
      py      :     1.011139
      dz2     :     0.014664  d :     0.076772
      dxz     :     0.016493
      dyz     :     0.012550
      dx2y2   :     0.018283
      dxy     :     0.014781
  1 C s       :     3.032268  s :     3.032268
      pz      :     0.970189  p :     2.719272
      px      :     0.944791
      py      :     0.804292
      dz2     :     0.026187  d :     0.143613
      dxz     :     0.023658
      dyz     :     0.027205
      dx2y2   :     0.036446
      dxy     :     0.030117
  2 O s       :     3.714130  s :     3.714130
      pz      :     1.243784  p :     4.553156
      px      :     1.771868
      py      :     1.537504
      dz2     :     0.007670  d :     0.033781
      dxz     :     0.006715
      dyz     :     0.005933
      dx2y2   :     0.006660
      dxy     :     0.006804
  3 H s       :     0.937238  s :     0.937238
      pz      :     0.010101  p :     0.033558
      px      :     0.008285
      py      :     0.015171
  4 H s       :     0.942649  s :     0.942649
      pz      :     0.017545  p :     0.033513
      px      :     0.008377
      py      :     0.007591
  5 H s       :     0.921454  s :     0.921454
      pz      :     0.009739  p :     0.033049
      px      :     0.007722
      py      :     0.015589
  6 H s       :     0.953402  s :     0.953402
      pz      :     0.009044  p :     0.031178
      px      :     0.008196
      py      :     0.013939
  7 H s       :     0.928233  s :     0.928233
      pz      :     0.017912  p :     0.031223
      px      :     0.008026
      py      :     0.005284
  8 H s       :     0.774692  s :     0.774692
      pz      :     0.039057  p :     0.082196
      px      :     0.025138
      py      :     0.018001


                     *******************************
                     * LOEWDIN POPULATION ANALYSIS *
                     *******************************

----------------------
LOEWDIN ATOMIC CHARGES
----------------------
   0 C :   -0.082574
   1 C :   -0.022525
   2 O :   -0.037071
   3 H :    0.026173
   4 H :    0.019867
   5 H :    0.028428
   6 H :    0.005681
   7 H :    0.023115
   8 H :    0.038906

-------------------------------
LOEWDIN REDUCED ORBITAL CHARGES
-------------------------------
  0 C s       :     2.802480  s :     2.802480
      pz      :     1.042574  p :     3.100972
      px      :     1.012008
      py      :     1.046390
      dz2     :     0.035347  d :     0.179122
      dxz     :     0.036515
      dyz     :     0.030136
      dx2y2   :     0.044006
      dxy     :     0.033118
  1 C s       :     2.803785  s :     2.803785
      pz      :     1.003930  p :     2.898410
      px      :     1.000277
      py      :     0.894203
      dz2     :     0.060864  d :     0.320330
      dxz     :     0.049058
      dyz     :     0.055924
      dx2y2   :     0.090013
      dxy     :     0.064470
  2 O s       :     3.400834  s :     3.400834
      pz      :     1.315524  p :     4.589601
      px      :     1.732442
      py      :     1.541635
      dz2     :     0.013194  d :     0.046636
      dxz     :     0.009655
      dyz     :     0.007823
      dx2y2   :     0.007969
      dxy     :     0.007995
  3 H s       :     0.886632  s :     0.886632
      pz      :     0.025148  p :     0.087195
      px      :     0.023150
      py      :     0.038897
  4 H s       :     0.893519  s :     0.893519
      pz      :     0.045373  p :     0.086614
      px      :     0.023064
      py      :     0.018177
  5 H s       :     0.884758  s :     0.884758
      pz      :     0.024342  p :     0.086814
      px      :     0.022290
      py      :     0.040181
  6 H s       :     0.909210  s :     0.909210
      pz      :     0.023931  p :     0.085110
      px      :     0.021986
      py      :     0.039193
  7 H s       :     0.893901  s :     0.893901
      pz      :     0.047569  p :     0.082984
      px      :     0.021711
      py      :     0.013705
  8 H s       :     0.754601  s :     0.754601
      pz      :     0.095366  p :     0.206493
      px      :     0.064711
      py      :     0.046416


                      *****************************
                      * MAYER POPULATION ANALYSIS *
                      *****************************

  NA   - Mulliken gross atomic population
  ZA   - Total nuclear charge
  QA   - Mulliken gross atomic charge
  VA   - Mayer's total valence
  BVA  - Mayer's bonded valence
  FA   - Mayer's free valence

  ATOM       NA         ZA         QA         VA         BVA        FA
  0 C      6.1014     6.0000    -0.1014     4.1031     3.7839     0.3191
  1 C      5.8952     6.0000     0.1048     4.1608     3.8497     0.3111
  2 O      8.3011     8.0000    -0.3011     2.3214     1.9734     0.3480
  3 H      0.9708     1.0000     0.0292     0.9964     0.9260     0.0703
  4 H      0.9762     1.0000     0.0238     0.9987     0.9282     0.0705
  5 H      0.9545     1.0000     0.0455     0.9985     0.9295     0.0690
  6 H      0.9846     1.0000     0.0154     0.9776     0.9068     0.0708
  7 H      0.9595     1.0000     0.0405     0.9845     0.9163     0.0682
  8 H      0.8569     1.0000     0.1431     1.0457     0.9798     0.0659

  Mayer bond orders larger than 0.100000
B(  0-C ,  1-C ) :   1.0123 B(  0-C ,  3-H ) :   0.9166 B(  0-C ,  4-H ) :   0.9249 
B(  0-C ,  5-H ) :   0.9240 B(  1-C ,  2-O ) :   0.9811 B(  1-C ,  6-H ) :   0.9144 
B(  1-C ,  7-H ) :   0.9172 B(  2-O ,  8-H ) :   0.9551 



------------------------------------------------------------------------------- 
                                     TIMINGS                                   
------------------------------------------------------------------------------- 


Total execution time                   ...       12.042 sec

Fock Matrix Formation                  ...        0.302 sec (  2.5%)
Initial Guess                          ...        0.003 sec (  0.0%)
DIIS Solver                            ...        0.317 sec (  2.6%)
State Vector Update                    ...        0.017 sec (  0.1%)
Sigma-vector construction              ...        9.721 sec ( 80.7%)
  <0|H|D>                              ...        0.009 sec (  0.1% of sigma)
  <D|H|D>(0-ext)                       ...        0.501 sec (  5.1% of sigma)
  <D|H|D>(2-ext Fock)                  ...        0.027 sec (  0.3% of sigma)
  <D|H|D>(2-ext)                       ...        1.233 sec ( 12.7% of sigma)
  <D|H|D>(4-ext)                       ...        0.660 sec (  6.8% of sigma)
  <D|H|D>(4-ext-corr)                  ...        0.871 sec (  9.0% of sigma)
  <S|H|0>                              ...        0.011 sec (  0.1% of sigma)
  <S|H|S>                              ...        0.018 sec (  0.2% of sigma)
  <S|H|D>(1-ext)                       ...        0.082 sec (  0.8% of sigma)
  <D|H|S>(1-ext)                       ...        0.193 sec (  2.0% of sigma)
  <S|H|D>(3-ext)                       ...        0.617 sec (  6.3% of sigma)
  Fock-dressing                        ...        3.157 sec ( 32.5% of sigma)
  (ik|jl)-dressing                     ...        0.511 sec (  5.3% of sigma)
  (ij|ab),(ia|jb)-dressing             ...        1.746 sec ( 18.0% of sigma)
  Pair energies                        ...        0.014 sec (  0.1% of sigma)
One-particle density matrix            ...        0.014 sec (  0.1%)


Maximum memory used throughout the entire MDCI-calculation: 231.0 MB

-------------------------   --------------------
FINAL SINGLE POINT ENERGY      -154.617099034116
-------------------------   --------------------


----------------------------------------------------------------------------
                           ORCA NUMERICAL GRADIENT
                              (2-process run)
----------------------------------------------------------------------------

I state                        ... 1
Number of atoms                ... 9
Derivative's order of accuracy ... 2
Central differences            ... used
Number of displacements        ... 54
Numerical increment            ... 5.000e-03 bohr
Translation invariance         ... used

The output will be reduced. Please look at the following files:
SCF program output             ... >Ethanol_orca_CCSD.lastscf
Integral program output        ... >Ethanol_orca_CCSD.lastint
Gradient program output        ... >Ethanol_orca_CCSD.lastgrad

	<< Calculating on displaced geometry   1 (of  48) >>
	<< Calculating on displaced geometry   2 (of  48) >>
	<< Calculating on displaced geometry   3 (of  48) >>
	<< Calculating on displaced geometry   4 (of  48) >>
	<< Calculating on displaced geometry   5 (of  48) >>
	<< Calculating on displaced geometry   6 (of  48) >>
	<< Calculating on displaced geometry   7 (of  48) >>
	<< Calculating on displaced geometry   8 (of  48) >>
	<< Calculating on displaced geometry   9 (of  48) >>
	<< Calculating on displaced geometry  10 (of  48) >>
	<< Calculating on displaced geometry  11 (of  48) >>
	<< Calculating on displaced geometry  12 (of  48) >>
	<< Calculating on displaced geometry  13 (of  48) >>
	<< Calculating on displaced geometry  14 (of  48) >>
	<< Calculating on displaced geometry  16 (of  48) >>
	<< Calculating on displaced geometry  15 (of  48) >>
	<< Calculating on displaced geometry  17 (of  48) >>
	<< Calculating on displaced geometry  18 (of  48) >>
	<< Calculating on displaced geometry  19 (of  48) >>
	<< Calculating on displaced geometry  20 (of  48) >>
	<< Calculating on displaced geometry  21 (of  48) >>
	<< Calculating on displaced geometry  22 (of  48) >>
	<< Calculating on displaced geometry  23 (of  48) >>
	<< Calculating on displaced geometry  24 (of  48) >>
	<< Calculating on displaced geometry  26 (of  48) >>
	<< Calculating on displaced geometry  25 (of  48) >>
	<< Calculating on displaced geometry  27 (of  48) >>
	<< Calculating on displaced geometry  28 (of  48) >>
	<< Calculating on displaced geometry  29 (of  48) >>
	<< Calculating on displaced geometry  30 (of  48) >>
	<< Calculating on displaced geometry  31 (of  48) >>
	<< Calculating on displaced geometry  32 (of  48) >>
	<< Calculating on displaced geometry  33 (of  48) >>
	<< Calculating on displaced geometry  34 (of  48) >>
	<< Calculating on displaced geometry  35 (of  48) >>
	<< Calculating on displaced geometry  36 (of  48) >>
	<< Calculating on displaced geometry  37 (of  48) >>
	<< Calculating on displaced geometry  38 (of  48) >>
	<< Calculating on displaced geometry  39 (of  48) >>
	<< Calculating on displaced geometry  40 (of  48) >>
	<< Calculating on displaced geometry  41 (of  48) >>
	<< Calculating on displaced geometry  42 (of  48) >>
	<< Calculating on displaced geometry  43 (of  48) >>
	<< Calculating on displaced geometry  44 (of  48) >>
	<< Calculating on displaced geometry  45 (of  48) >>
	<< Calculating on displaced geometry  46 (of  48) >>
	<< Calculating on displaced geometry  47 (of  48) >>
	<< Calculating on displaced geometry  48 (of  48) >>

------------------------------
CARTESIAN GRADIENT (NUMERICAL)
-------------------------------
   1   C   :    0.000996014    0.002152663   -0.003771492
   2   C   :    0.004498707   -0.009521711    0.014096918
   3   O   :   -0.005321802   -0.007771187    0.001430330
   4   H   :    0.004613583    0.005952031   -0.002650532
   5   H   :    0.002285732    0.002256271    0.006984713
   6   H   :    0.000658318   -0.004551047   -0.003876841
   7   H   :   -0.001670569    0.011699074    0.000203055
   8   H   :   -0.004436052   -0.002701494   -0.004192416
   9   H   :   -0.001623929    0.002485400   -0.008223734

Norm of the cartesian gradient     ...    0.028981802
RMS gradient                       ...    0.005577550
MAX gradient                       ...    0.014096918

-------
TIMINGS
-------

Total numerical gradient time      ...      588.102 sec

------------------------------------------------------------------------------
                         ORCA GEOMETRY RELAXATION STEP
------------------------------------------------------------------------------

Reading the OPT-File                    .... done
Getting information on internals        .... done
Copying old internal coords+grads       .... done
Making the new internal coordinates     .... (new redundants).... done
Validating the new internal coordinates .... (new redundants).... done
Calculating the B-matrix                .... done
Calculating the G,G- and P matrices     .... done
Transforming gradient to internals      .... done
Projecting the internal gradient        .... done
Number of atoms                         ....   9
Number of internal coordinates          ....  33
Current Energy                          ....  -154.617099034 Eh
Current gradient norm                   ....     0.028981802 Eh/bohr
Maximum allowed component of the step   ....  0.300
Current trust radius                    ....  0.300
Evaluating the initial hessian          ....  (Almloef) done
Projecting the Hessian                  .... done
Forming the augmented Hessian           .... done
Diagonalizing the augmented Hessian     .... done
Last element of RFO vector              ....  0.994621956
Lowest eigenvalues of augmented Hessian:
 -0.002409005  0.012413666  0.019835557  0.105876764  0.107721370
Length of the computed step             ....  0.104132050
The final length of the internal step   ....  0.104132050
Converting the step to cartesian space:
 Initial RMS(Int)=    0.0181270631
Transforming coordinates:
 Iter   0:  RMS(Cart)=    0.0280325208 RMS(Int)=    1.0920514779
 Iter   1:  RMS(Cart)=    0.0003130970 RMS(Int)=    0.0002525700
 Iter   2:  RMS(Cart)=    0.0000073220 RMS(Int)=    0.0000051414
 Iter   3:  RMS(Cart)=    0.0000001564 RMS(Int)=    0.0000001282
 Iter   4:  RMS(Cart)=    0.0000000043 RMS(Int)=    0.0000000035
done
Storing new coordinates                 .... done

                                .--------------------.
          ----------------------|Geometry convergence|-------------------------
          Item                value                   Tolerance       Converged
          ---------------------------------------------------------------------
          RMS gradient        0.0046886029            0.0001000000      NO
          MAX gradient        0.0101211598            0.0003000000      NO
          RMS step            0.0181270631            0.0020000000      NO
          MAX step            0.0337698341            0.0040000000      NO
          ........................................................
          Max(Bonds)      0.0150      Max(Angles)    1.87
          Max(Dihed)        1.93      Max(Improp)    0.00
          ---------------------------------------------------------------------

The optimization has not yet converged - more geometry cycles are needed


    ---------------------------------------------------------------------------
                         Redundant Internal Coordinates
                            (Angstroem and degrees)

        Definition                    Value    dE/dq     Step     New-Value
    ----------------------------------------------------------------------------
     1. B(C   1,C   0)                1.5146 -0.008579  0.0114    1.5260   
     2. B(O   2,C   1)                1.4202 -0.003536  0.0037    1.4239   
     3. B(H   3,C   0)                1.0936 -0.007687  0.0114    1.1049   
     4. B(H   4,C   0)                1.0950 -0.007322  0.0109    1.1058   
     5. B(H   5,C   0)                1.0949 -0.005716  0.0085    1.1034   
     6. B(H   6,C   1)                1.0942 -0.010121  0.0150    1.1092   
     7. B(H   7,C   1)                1.0939 -0.005496  0.0081    1.1020   
     8. B(H   8,O   2)                0.9724  0.008229 -0.0087    0.9637   
     9. A(C   1,C   0,H   5)          110.60  0.002203   -0.32    110.28   
    10. A(H   3,C   0,H   4)          108.77  0.001751   -0.47    108.30   
    11. A(H   3,C   0,H   5)          108.87  0.000440   -0.08    108.78   
    12. A(C   1,C   0,H   4)          110.70  0.000660   -0.12    110.59   
    13. A(C   1,C   0,H   3)          110.89 -0.003034    0.47    111.36   
    14. A(H   4,C   0,H   5)          106.90 -0.001967    0.52    107.42   
    15. A(H   6,C   1,H   7)          108.39 -0.000011   -0.78    107.61   
    16. A(C   0,C   1,O   2)          109.98 -0.009928    1.87    111.84   
    17. A(O   2,C   1,H   7)          108.17  0.007631   -1.82    106.35   
    18. A(C   0,C   1,H   7)          110.49 -0.000200   -0.38    110.10   
    19. A(O   2,C   1,H   6)          108.72 -0.001998    1.46    110.18   
    20. A(C   0,C   1,H   6)          111.02  0.004715   -0.39    110.63   
    21. A(C   1,O   2,H   8)          107.55  0.005421   -0.87    106.67   
    22. D(H   6,C   1,C   0,H   5)   -178.58  0.003111   -1.23   -179.81   
    23. D(O   2,C   1,C   0,H   4)     60.09 -0.003511    1.93     62.03   
    24. D(H   6,C   1,C   0,H   3)     60.54  0.003103   -1.22     59.32   
    25. D(O   2,C   1,C   0,H   3)   -179.09 -0.002886    1.57   -177.51   
    26. D(O   2,C   1,C   0,H   5)    -58.21 -0.002878    1.56    -56.64   
    27. D(H   7,C   1,C   0,H   3)    -59.74  0.000151    0.26    -59.48   
    28. D(H   7,C   1,C   0,H   4)    179.44 -0.000474    0.62    180.06   
    29. D(H   7,C   1,C   0,H   5)     61.14  0.000159    0.25     61.39   
    30. D(H   6,C   1,C   0,H   4)    -60.28  0.002478   -0.86    -61.14   
    31. D(H   8,O   2,C   1,H   7)    179.38  0.001604   -0.42    178.96   
    32. D(H   8,O   2,C   1,H   6)     61.88 -0.001510    0.71     62.59   
    33. D(H   8,O   2,C   1,C   0)    -59.87  0.000140   -0.90    -60.77   
    ----------------------------------------------------------------------------

         *************************************************************
         *                GEOMETRY OPTIMIZATION CYCLE   2            *
         *************************************************************
---------------------------------
CARTESIAN COORDINATES (ANGSTROEM)
---------------------------------
  C      0.998297    0.071974   -0.057333
  C      2.524003    0.087548   -0.084253
  O      3.030474    1.256934   -0.719485
  H      0.614296   -0.816286    0.475986
  H      0.591328    0.062409   -1.085530
  H      0.615326    0.978847    0.441163
  H      2.914693   -0.820473   -0.587447
  H      2.921040    0.095993    0.943705
  H      2.699323    1.245484   -1.624416

----------------------------
CARTESIAN COORDINATES (A.U.)
----------------------------
  NO LB      ZA    FRAG     MASS         X           Y           Z
   0 C     6.0000    0    12.011    1.886507    0.136011   -0.108344
   1 C     6.0000    0    12.011    4.769674    0.165442   -0.159215
   2 O     8.0000    0    15.999    5.726765    2.375262   -1.359630
   3 H     1.0000    0     1.008    1.160852   -1.542557    0.899483
   4 H     1.0000    0     1.008    1.117449    0.117935   -2.051354
   5 H     1.0000    0     1.008    1.162798    1.849753    0.833676
   6 H     1.0000    0     1.008    5.507971   -1.550469   -1.110113
   7 H     1.0000    0     1.008    5.519966    0.181400    1.783344
   8 H     1.0000    0     1.008    5.100981    2.353623   -3.069701

--------------------------------
INTERNAL COORDINATES (ANGSTROEM)
--------------------------------
 C      0   0   0     0.000000000000     0.00000000     0.00000000
 C      1   0   0     1.526022817299     0.00000000     0.00000000
 O      2   1   0     1.423902046029   111.83096687     0.00000000
 H      1   2   3     1.104939632235   111.35695495   182.49193041
 H      1   2   3     1.105849258045   110.58671859    62.03169022
 H      1   2   3     1.103441596047   110.27819813   303.36172839
 H      2   1   3     1.109209270789   110.59738113   236.82757444
 H      2   1   3     1.102001721821   110.11075823   118.02464969
 H      3   2   1     0.963686396601   106.67462868   299.19911659

---------------------------
INTERNAL COORDINATES (A.U.)
---------------------------
 C      0   0   0     0.000000000000     0.00000000     0.00000000
 C      1   0   0     2.883765198811     0.00000000     0.00000000
 O      2   1   0     2.690784908525   111.83096687     0.00000000
 H      1   2   3     2.088033299440   111.35695495   182.49193041
 H      1   2   3     2.089752243106   110.58671859    62.03169022
 H      1   2   3     2.085202421305   110.27819813   303.36172839
 H      2   1   3     2.096101746998   110.59738113   236.82757444
 H      2   1   3     2.082481453352   110.11075823   118.02464969
 H      3   2   1     1.821103368562   106.67462868   299.19911659



           ************************************************************
           *        Program running with 2 parallel MPI-processes     *
           *              working on a common directory               *
           ************************************************************
------------------------------------------------------------------------------
                   ___                                                        
                  /   \      - P O W E R E D   B Y -                         
                 /     \                                                     
                 |  |  |   _    _      __       _____    __    __             
                 |  |  |  | |  | |    /  \     |  _  \  |  |  /  |          
                  \  \/   | |  | |   /    \    | | | |  |  | /  /          
                 / \  \   | |__| |  /  /\  \   | |_| |  |  |/  /          
                |  |  |   |  __  | /  /__\  \  |    /   |      \           
                |  |  |   | |  | | |   __   |  |    \   |  |\   \          
                \     /   | |  | | |  |  |  |  | |\  \  |  | \   \       
                 \___/    |_|  |_| |__|  |__|  |_| \__\ |__|  \__/        
                                                                              
                      - O R C A' S   B I G   F R I E N D -                    
                                      &                                       
                       - I N T E G R A L  F E E D E R -                       
                                                                              
 v1 FN, 2020, v2 2021                                                         
------------------------------------------------------------------------------


Reading SHARK input file Ethanol_orca_CCSD.SHARKINP.tmp ... ok
----------------------
SHARK INTEGRAL PACKAGE
----------------------

Number of atoms                             ...      9
Number of basis functions                   ...     72
Number of shells                            ...     36
Maximum angular momentum                    ...      2
Integral batch strategy                     ... SHARK/LIBINT Hybrid
RI-J (if used) integral strategy            ... SPLIT-RIJ (Revised 2003 algorithm where possible)
Printlevel                                  ...      1
Contraction scheme used                     ... SEGMENTED contraction
Coulomb Range Separation                    ... NOT USED
Exchange Range Separation                   ... NOT USED
Finite Nucleus Model                        ... NOT USED
Auxiliary Coulomb fitting basis             ... NOT available
Auxiliary J/K fitting basis                 ... NOT available
Auxiliary Correlation fitting basis         ... NOT available
Auxiliary 'external' fitting basis          ... NOT available
Integral threshold                          ...     1.000000e-12
Primitive cut-off                           ...     1.000000e-14
Primitive pair pre-selection threshold      ...     1.000000e-14

Calculating pre-screening integrals         ... done (  0.0 sec) Dimension = 36
Organizing shell pair data                  ... done (  0.0 sec)
Shell pair information
Total number of shell pairs                 ...       666
Shell pairs after pre-screening             ...       666
Total number of primitive shell pairs       ...      4851
Primitive shell pairs kept                  ...      3894
          la=0 lb=0:    231 shell pairs
          la=1 lb=0:    252 shell pairs
          la=1 lb=1:     78 shell pairs
          la=2 lb=0:     63 shell pairs
          la=2 lb=1:     36 shell pairs
          la=2 lb=2:      6 shell pairs

Calculating one electron integrals          ... done (  0.0 sec)
Calculating Nuclear repulsion               ... done (  0.0 sec) ENN=     81.429374786964 Eh

SHARK setup successfully completed in   0.1 seconds

Maximum memory used throughout the entire GTOINT-calculation: 11.0 MB


           ************************************************************
           *        Program running with 2 parallel MPI-processes     *
           *              working on a common directory               *
           ************************************************************

Diagonalization of the overlap matrix:
Smallest eigenvalue                        ... 6.543e-03
Time for diagonalization                   ...    0.001 sec
Threshold for overlap eigenvalues          ... 1.000e-08
Number of eigenvalues below threshold      ... 0
Time for construction of square roots      ...    0.001 sec
Total time needed                          ...    0.003 sec

--------------
SCF ITERATIONS
--------------
ITER       Energy         Delta-E        Max-DP      RMS-DP      [F,P]     Damp
               ***  Starting incremental Fock matrix formation  ***
                      *** Initiating the SOSCF procedure ***
                      *** Re-Reading the Fockian *** 
                      *** Removing any level shift *** 
ITER      Energy       Delta-E        Grad      Rot      Max-DP    RMS-DP
  0   -154.09090487 -154.0909048694  0.003045  0.003045  0.006045  0.000388
               *** Restarting incremental Fock matrix formation ***
  1   -154.09129958  -0.0003947059  0.001306  0.001226  0.002099  0.000166
  2   -154.09136091  -0.0000613393  0.000450  0.000696  0.001253  0.000088
  3   -154.09136925  -0.0000083322  0.000112  0.000127  0.000280  0.000014
  4   -154.09136955  -0.0000003009  0.000048  0.000027  0.000078  0.000005
  5   -154.09136960  -0.0000000564  0.000009  0.000015  0.000026  0.000002
  6   -154.09136961  -0.0000000041  0.000003  0.000004  0.000008  0.000001
  7   -154.09136961  -0.0000000004  0.000001  0.000001  0.000002  0.000000
                  ***Gradient check signals convergence***
              ***Rediagonalizing the Fockian in SOSCF/NRSCF***

               *****************************************************
               *                     SUCCESS                       *
               *           SCF CONVERGED AFTER   8 CYCLES          *
               *****************************************************

Total Energy       :         -154.09136961 Eh           -4193.03934 eV
  Last Energy change         ...   -4.7407e-11  Tolerance :   1.0000e-09
  Last MAX-Density change    ...    7.4175e-07  Tolerance :   1.0000e-08
             **** THE GBW FILE WAS UPDATED (Ethanol_orca_CCSD.gbw) ****
             **** DENSITY Ethanol_orca_CCSD.scfp WAS UPDATED ****
             **** ENERGY FILE WAS UPDATED (Ethanol_orca_CCSD.en.tmp) ****
             **** THE GBW FILE WAS UPDATED (Ethanol_orca_CCSD.gbw) ****
             **** DENSITY Ethanol_orca_CCSD.scfp WAS UPDATED ****
Total SCF time: 0 days 0 hours 0 min 2 sec 

Maximum memory used throughout the entire SCF-calculation: 225.4 MB


           ************************************************************
           *        Program running with 2 parallel MPI-processes     *
           *              working on a common directory               *
           ************************************************************


[...]

   0:         0.00 cm**-1
   1:         0.00 cm**-1
   2:         0.00 cm**-1
   3:         0.00 cm**-1
   4:         0.00 cm**-1
   5:         0.00 cm**-1
   6:       277.99 cm**-1
   7:       327.92 cm**-1
   8:       425.18 cm**-1
   9:       808.18 cm**-1
  10:       909.86 cm**-1
  11:      1083.10 cm**-1
  12:      1122.17 cm**-1
  13:      1155.95 cm**-1
  14:      1294.95 cm**-1
  15:      1393.96 cm**-1
  16:      1416.15 cm**-1
  17:      1450.29 cm**-1
  18:      1490.90 cm**-1
  19:      1497.74 cm**-1
  20:      1525.62 cm**-1
  21:      3026.80 cm**-1
  22:      3059.50 cm**-1
  23:      3118.01 cm**-1
  24:      3142.74 cm**-1
  25:      3161.27 cm**-1
  26:      3853.58 cm**-1


------------
NORMAL MODES
------------

These modes are the cartesian displacements weighted by the diagonal matrix
M(i,i)=1/sqrt(m[i]) where m[i] is the mass of the displaced atom
Thus, these vectors are normalized but *not* orthogonal

                  0          1          2          3          4          5    
      0       0.000000   0.000000   0.000000   0.000000   0.000000   0.000000
      1       0.000000   0.000000   0.000000   0.000000   0.000000   0.000000
      2       0.000000   0.000000   0.000000   0.000000   0.000000   0.000000
      3       0.000000   0.000000   0.000000   0.000000   0.000000   0.000000
      4       0.000000   0.000000   0.000000   0.000000   0.000000   0.000000
      5       0.000000   0.000000   0.000000   0.000000   0.000000   0.000000
      6       0.000000   0.000000   0.000000   0.000000   0.000000   0.000000
      7       0.000000   0.000000   0.000000   0.000000   0.000000   0.000000
      8       0.000000   0.000000   0.000000   0.000000   0.000000   0.000000
      9       0.000000   0.000000   0.000000   0.000000   0.000000   0.000000
     10       0.000000   0.000000   0.000000   0.000000   0.000000   0.000000
     11       0.000000   0.000000   0.000000   0.000000   0.000000   0.000000
     12       0.000000   0.000000   0.000000   0.000000   0.000000   0.000000
     13       0.000000   0.000000   0.000000   0.000000   0.000000   0.000000
     14       0.000000   0.000000   0.000000   0.000000   0.000000   0.000000
     15       0.000000   0.000000   0.000000   0.000000   0.000000   0.000000
     16       0.000000   0.000000   0.000000   0.000000   0.000000   0.000000
     17       0.000000   0.000000   0.000000   0.000000   0.000000   0.000000
     18       0.000000   0.000000   0.000000   0.000000   0.000000   0.000000
     19       0.000000   0.000000   0.000000   0.000000   0.000000   0.000000
     20       0.000000   0.000000   0.000000   0.000000   0.000000   0.000000
     21       0.000000   0.000000   0.000000   0.000000   0.000000   0.000000
     22       0.000000   0.000000   0.000000   0.000000   0.000000   0.000000
     23       0.000000   0.000000   0.000000   0.000000   0.000000   0.000000
     24       0.000000   0.000000   0.000000   0.000000   0.000000   0.000000
     25       0.000000   0.000000   0.000000   0.000000   0.000000   0.000000
     26       0.000000   0.000000   0.000000   0.000000   0.000000   0.000000
                  6          7          8          9         10         11    
      0       0.002509   0.025908   0.139715   0.001282   0.178303   0.090440
      1       0.000939   0.018841   0.114837  -0.022882   0.106881  -0.059688
      2      -0.006201  -0.035338  -0.057372  -0.038718  -0.058788   0.091549
      3       0.001762   0.021915   0.108431  -0.001539  -0.093440  -0.130047
      4      -0.033998  -0.000585  -0.136362  -0.033277   0.087407   0.014564
      5      -0.051307   0.055768   0.051543  -0.056477  -0.051707  -0.072859
      6       0.006066   0.010170  -0.237923  -0.000656  -0.077190  -0.003742
      7       0.015627  -0.045390  -0.003231   0.003338  -0.114647  -0.024750
      8       0.045044  -0.028820   0.034078   0.015282   0.064934   0.009871
      9      -0.003270  -0.051138  -0.300014   0.020599   0.838601  -0.269877
     10       0.299052  -0.022250   0.269708   0.088168  -0.110384  -0.010052
     11       0.478856  -0.160083  -0.114768   0.157070   0.048077  -0.102988
     12      -0.052321   0.126028   0.320234  -0.435679  -0.052209   0.520747
     13      -0.518063   0.110338   0.292549   0.143727  -0.185512   0.100534
     14       0.030783  -0.081470  -0.136208   0.138554   0.049096  -0.089972
     15       0.071348  -0.009147   0.419372   0.434023  -0.105600   0.163680
     16       0.275914  -0.015123   0.290420   0.041815  -0.119833   0.102935
     17      -0.452354   0.000643  -0.165765   0.183126   0.121592  -0.157285
     18      -0.025018   0.027466   0.162181   0.383228  -0.241428  -0.119954
     19      -0.002595  -0.036545  -0.074633  -0.060767  -0.023138  -0.110219
     20      -0.131000   0.122514  -0.016210   0.301924   0.023492   0.175312
     21       0.026531  -0.002356   0.156381  -0.398235  -0.222500  -0.037479
     22      -0.116600   0.075744  -0.121174   0.289256  -0.005969   0.361801
     23      -0.060905   0.064323   0.032029   0.100280   0.000244  -0.113995
     24      -0.164447  -0.822116   0.061346   0.009550  -0.002893   0.274226
     25       0.208169   0.390734  -0.349105   0.113991  -0.050556   0.485513
     26       0.104927   0.268080  -0.070509   0.010806   0.043482  -0.090443
                 12         13         14         15         16         17    
      0      -0.122435  -0.002986  -0.008866  -0.088081   0.106542   0.072723
      1       0.074418   0.114356  -0.037184   0.040184   0.020216   0.029227
      2       0.033001   0.017014  -0.101953  -0.011523  -0.019387  -0.008941
      3       0.203206  -0.002974   0.003428  -0.062935  -0.021765  -0.126229
      4       0.052538  -0.246519   0.011702  -0.046703  -0.012431  -0.048982
      5      -0.130708   0.017180   0.092024   0.064415   0.064615  -0.020464
      6      -0.073330   0.012776  -0.017439  -0.002614  -0.020691   0.036007
      7      -0.124021   0.136391  -0.005048  -0.024886  -0.029690   0.021579
      8       0.080997  -0.045990  -0.004946  -0.024462  -0.038247   0.033943
      9      -0.045719   0.333270   0.069513   0.407038  -0.354921  -0.190274
     10      -0.049854  -0.114519   0.084248  -0.117579   0.229081   0.039899
     11      -0.101889  -0.099651   0.156714   0.065221   0.024247  -0.169573
     12      -0.056914   0.070800  -0.300392   0.298352  -0.279046  -0.207699
     13      -0.096910  -0.237760   0.073113  -0.085805  -0.055960  -0.194624
     14      -0.002176  -0.001820   0.023219  -0.146693   0.139638   0.106755
     15      -0.506993  -0.413925   0.253223   0.240186  -0.411769  -0.109491
     16      -0.044105  -0.097014  -0.049358   0.084852  -0.244014  -0.082480
     17      -0.039962   0.058874   0.130426   0.135439   0.082526   0.040548
     18       0.301466  -0.121403  -0.444489   0.538337   0.238649   0.286226
     19      -0.098891  -0.496271  -0.187213   0.347347   0.232559   0.117131
     20       0.197316   0.396483   0.093962  -0.189186  -0.161006  -0.003639
     21       0.327079  -0.110703   0.585939   0.221434  -0.105348   0.491072
     22       0.456191   0.115183   0.142852  -0.027247  -0.219890   0.411639
     23      -0.173415   0.057208  -0.136956  -0.037873   0.101763  -0.272009
     24       0.182528   0.110199   0.177779   0.135603   0.230662  -0.203781
     25       0.289263   0.240392   0.320121   0.271109   0.436701  -0.398670
     26      -0.001207  -0.088577  -0.070545  -0.068890  -0.119043   0.109551
                 18         19         20         21         22         23    
      0      -0.005791   0.018533  -0.004298  -0.004134   0.050449   0.002585
      1      -0.024890  -0.037186   0.011807  -0.006106   0.003603   0.001098
      2      -0.040846   0.023705  -0.007464  -0.002401   0.011824  -0.041196
      3      -0.011997  -0.038737  -0.033067  -0.035519  -0.007160   0.020906
      4      -0.016833  -0.003889   0.069432   0.063238   0.006359   0.013782
      5      -0.031636   0.002905  -0.043375   0.019011   0.001632   0.074291
      6       0.008358   0.001685  -0.001557   0.000577   0.000257  -0.000615
      7       0.009277   0.004390   0.005239   0.000874   0.000354  -0.000462
      8       0.011653  -0.004114  -0.001366  -0.000793  -0.000099  -0.001066
      9       0.031787   0.266044  -0.137961   0.025007  -0.172625  -0.079605
     10       0.350281  -0.097645   0.057150   0.076535  -0.428155  -0.198189
     11       0.597941   0.065252  -0.022966  -0.048447   0.265576   0.111701
     12       0.338476  -0.210287   0.105740   0.033088  -0.243652   0.118168
     13       0.340628   0.558360  -0.220960   0.000146  -0.018137   0.009492
     14      -0.173791   0.088676  -0.040619   0.086377  -0.634184   0.294121
     15      -0.271491  -0.238504   0.100279  -0.000038  -0.158249  -0.072952
     16      -0.281186   0.173217  -0.074223  -0.002664   0.403450   0.180338
     17       0.244777  -0.535524   0.221022  -0.001117   0.226955   0.089758
     18       0.040837   0.209910   0.214297   0.330316   0.038919   0.073336
     19      -0.024404  -0.021802  -0.191427  -0.783945  -0.083632  -0.153991
     20       0.018638   0.208433   0.582955  -0.443981  -0.048393  -0.077611
     21       0.016181   0.185111   0.199575   0.073413   0.015172  -0.315604
     22       0.101021  -0.214006  -0.605960   0.014614   0.001320  -0.011640
     23      -0.047146  -0.074273  -0.115085   0.224745   0.035386  -0.807790
     24      -0.076501   0.001712  -0.011989   0.001549   0.000551   0.006498
     25      -0.136432   0.021625  -0.015746   0.000683   0.000822   0.004015
     26       0.038283  -0.004342   0.002160  -0.002918  -0.004111   0.012387
                 24         25         26    
      0       0.004582  -0.003678  -0.000263
      1       0.025853   0.089008   0.000188
      2      -0.078291   0.023172  -0.000489
      3      -0.010790   0.000528   0.001762
      4      -0.006168   0.007580   0.001516
      5      -0.038129   0.011559   0.002023
      6       0.000362   0.000048   0.019898
      7      -0.000046  -0.000536  -0.001719
      8       0.000925  -0.000084   0.058988
      9      -0.211917  -0.175790   0.001867
     10      -0.500045  -0.406873   0.001439
     11       0.292732   0.261038  -0.001093
     12       0.233475  -0.066218  -0.000643
     13       0.022222   0.011759   0.000092
     14       0.573168  -0.160750   0.003001
     15      -0.066418   0.284356  -0.000248
     16       0.164573  -0.674550  -0.000314
     17       0.072190  -0.376771   0.000429
     18      -0.036652   0.032841   0.001591
     19       0.077040  -0.071945   0.001855
     20       0.041722  -0.040605  -0.002789
     21       0.156552  -0.038484  -0.005648
     22       0.006938  -0.002679  -0.003456
     23       0.396278  -0.095689  -0.012535
     24      -0.006815   0.000053  -0.330597
     25      -0.004553   0.001877   0.007362
     26      -0.003538   0.000266  -0.941558


-----------
IR SPECTRUM
-----------

 Mode   freq       eps      Int      T**2         TX        TY        TZ
       cm**-1   L/(mol*cm) km/mol    a.u.
----------------------------------------------------------------------------
  6:    277.99   0.000902    4.56  0.001013  (-0.023703  0.021190  0.001360)
  7:    327.92   0.019984  100.99  0.019018  (-0.114476  0.052569  0.056121)
  8:    425.18   0.003827   19.34  0.002809  ( 0.045788 -0.025648 -0.007379)
  9:    808.18   0.000402    2.03  0.000155  (-0.002429  0.012143  0.001417)
 10:    909.86   0.001360    6.87  0.000466  ( 0.007615  0.018168 -0.008853)
 11:   1083.10   0.004403   22.25  0.001269  ( 0.003677  0.030134 -0.018627)
 12:   1122.17   0.013542   68.44  0.003766  ( 0.035055  0.041753 -0.028175)
 13:   1155.95   0.003220   16.27  0.000869  (-0.006691 -0.027710  0.007534)
 14:   1294.95   0.001748    8.83  0.000421  ( 0.010334  0.016236 -0.007131)
 15:   1393.96   0.000171    0.86  0.000038  (-0.001138 -0.002514  0.005540)
 16:   1416.15   0.000818    4.13  0.000180  (-0.004051  0.012568 -0.002432)
 17:   1450.29   0.010886   55.01  0.002342  (-0.032120 -0.032925  0.015055)
 18:   1490.90   0.001759    8.89  0.000368  (-0.005890 -0.000817  0.018244)
 19:   1497.74   0.000273    1.38  0.000057  (-0.002563  0.005866 -0.003988)
 20:   1525.62   0.000028    0.14  0.000006  ( 0.002395  0.000161 -0.000056)
 21:   3026.80   0.014140   71.46  0.001458  (-0.019806  0.032464  0.003421)
 22:   3059.50   0.002920   14.76  0.000298  ( 0.015524  0.005559  0.005091)
 23:   3118.01   0.001986   10.03  0.000199  ( 0.007553  0.004242  0.011122)
 24:   3142.74   0.009514   48.08  0.000945  (-0.002020  0.005509 -0.030170)
 25:   3161.27   0.005060   25.57  0.000499  (-0.000648  0.020875  0.007954)
 26:   3853.58   0.002623   13.25  0.000212  (-0.000199  0.004589 -0.013831)

* The epsilon (eps) is given for a Dirac delta lineshape.
** The dipole moment derivative (T) already includes vibrational overlap.

The first frequency considered to be a vibration is 6
The total number of vibrations considered is 21


--------------------------
THERMOCHEMISTRY AT 298.15K
--------------------------

Temperature         ... 298.15 K
Pressure            ... 1.00 atm
Total Mass          ... 46.07 AMU

Throughout the following assumptions are being made:
  (1) The electronic state is orbitally nondegenerate
  (2) There are no thermally accessible electronically excited states
  (3) Hindered rotations indicated by low frequency modes are not
      treated as such but are treated as vibrations and this may
      cause some error
  (4) All equations used are the standard statistical mechanics
      equations for an ideal gas
  (5) All vibrations are strictly harmonic

freq.     277.99  E(vib)   ...       0.28 
freq.     327.92  E(vib)   ...       0.24 
freq.     425.18  E(vib)   ...       0.18 
freq.     808.18  E(vib)   ...       0.05 
freq.     909.86  E(vib)   ...       0.03 
freq.    1083.10  E(vib)   ...       0.02 
freq.    1122.17  E(vib)   ...       0.01 
freq.    1155.95  E(vib)   ...       0.01 
freq.    1294.95  E(vib)   ...       0.01 
freq.    1393.96  E(vib)   ...       0.00 
freq.    1416.15  E(vib)   ...       0.00 
freq.    1450.29  E(vib)   ...       0.00 
freq.    1490.90  E(vib)   ...       0.00 
freq.    1497.74  E(vib)   ...       0.00 
freq.    1525.62  E(vib)   ...       0.00 
freq.    3026.80  E(vib)   ...       0.00 
freq.    3059.50  E(vib)   ...       0.00 
freq.    3118.01  E(vib)   ...       0.00 
freq.    3142.74  E(vib)   ...       0.00 
freq.    3161.27  E(vib)   ...       0.00 
freq.    3853.58  E(vib)   ...       0.00 

------------
INNER ENERGY
------------

The inner energy is: U= E(el) + E(ZPE) + E(vib) + E(rot) + E(trans)
    E(el)   - is the total energy from the electronic structure calculation
              = E(kin-el) + E(nuc-el) + E(el-el) + E(nuc-nuc)
    E(ZPE)  - the the zero temperature vibrational energy from the frequency calculation
    E(vib)  - the the finite temperature correction to E(ZPE) due to population
              of excited vibrational states
    E(rot)  - is the rotational thermal energy
    E(trans)- is the translational thermal energy

Summary of contributions to the inner energy U:
Electronic energy                ...   -154.61859864 Eh
Zero point energy                ...      0.08097032 Eh      50.81 kcal/mol
Thermal vibrational correction   ...      0.00136465 Eh       0.86 kcal/mol
Thermal rotational correction    ...      0.00141627 Eh       0.89 kcal/mol
Thermal translational correction ...      0.00141627 Eh       0.89 kcal/mol
-----------------------------------------------------------------------
Total thermal energy                   -154.53343113 Eh


Summary of corrections to the electronic energy:
(perhaps to be used in another calculation)
Total thermal correction                  0.00419719 Eh       2.63 kcal/mol
Non-thermal (ZPE) correction              0.08097032 Eh      50.81 kcal/mol
-----------------------------------------------------------------------
Total correction                          0.08516751 Eh      53.44 kcal/mol


--------
ENTHALPY
--------

The enthalpy is H = U + kB*T
                kB is Boltzmann's constant
Total free energy                 ...   -154.53343113 Eh 
Thermal Enthalpy correction       ...      0.00094421 Eh       0.59 kcal/mol
-----------------------------------------------------------------------
Total Enthalpy                    ...   -154.53248692 Eh


Note: Only C1 symmetry has been detected, increase convergence thresholds 
      if your molecule has a higher symmetry. Symmetry factor of 1.0 is   
      used for the rotational entropy correction. 
 

Note: Rotational entropy computed according to Herzberg 
Infrared and Raman Spectra, Chapter V,1, Van Nostrand Reinhold, 1945 
Point Group:  C1, Symmetry Number:   1  
Rotational constants in cm-1:     1.133786     0.306330     0.270447 

Vibrational entropy computed according to the QRRHO of S. Grimme
Chem.Eur.J. 2012 18 9955


-------
ENTROPY
-------

The entropy contributions are T*S = T*(S(el)+S(vib)+S(rot)+S(trans))
     S(el)   - electronic entropy
     S(vib)  - vibrational entropy
     S(rot)  - rotational entropy
     S(trans)- translational entropy
The entropies will be listed as multiplied by the temperature to get
units of energy

Electronic entropy                ...      0.00000000 Eh      0.00 kcal/mol
Vibrational entropy               ...      0.00205350 Eh      1.29 kcal/mol
Rotational entropy                ...      0.01062740 Eh      6.67 kcal/mol
Translational entropy             ...      0.01777359 Eh     11.15 kcal/mol
-----------------------------------------------------------------------
Final entropy term                ...      0.03045449 Eh     19.11 kcal/mol

In case the symmetry of your molecule has not been determined correctly
or in case you have a reason to use a different symmetry number we print 
out the resulting rotational entropy values for sn=1,12 :
 --------------------------------------------------------
|  sn= 1 | S(rot)=       0.01062740 Eh      6.67 kcal/mol|
|  sn= 2 | S(rot)=       0.00997295 Eh      6.26 kcal/mol|
|  sn= 3 | S(rot)=       0.00959011 Eh      6.02 kcal/mol|
|  sn= 4 | S(rot)=       0.00931849 Eh      5.85 kcal/mol|
|  sn= 5 | S(rot)=       0.00910780 Eh      5.72 kcal/mol|
|  sn= 6 | S(rot)=       0.00893566 Eh      5.61 kcal/mol|
|  sn= 7 | S(rot)=       0.00879011 Eh      5.52 kcal/mol|
|  sn= 8 | S(rot)=       0.00866403 Eh      5.44 kcal/mol|
|  sn= 9 | S(rot)=       0.00855283 Eh      5.37 kcal/mol|
|  sn=10 | S(rot)=       0.00845335 Eh      5.30 kcal/mol|
|  sn=11 | S(rot)=       0.00836336 Eh      5.25 kcal/mol|
|  sn=12 | S(rot)=       0.00828120 Eh      5.20 kcal/mol|
 --------------------------------------------------------


-------------------
GIBBS FREE ENERGY
-------------------

The Gibbs free energy is G = H - T*S

Total enthalpy                    ...   -154.53248692 Eh 
Total entropy correction          ...     -0.03045449 Eh    -19.11 kcal/mol
-----------------------------------------------------------------------
Final Gibbs free energy         ...   -154.56294141 Eh

For completeness - the Gibbs free energy minus the electronic energy
G-E(el)                           ...      0.05565723 Eh     34.93 kcal/mol



Timings for individual modules:

Sum of individual times         ...    39328.316 sec (= 655.472 min)
GTO integral calculation        ...        2.567 sec (=   0.043 min)   0.0 %
SCF iterations                  ...       14.250 sec (=   0.237 min)   0.0 %
MDCI module                     ...       82.784 sec (=   1.380 min)   0.2 %
SCF Gradient evaluation         ...     3751.830 sec (=  62.530 min)   9.5 %
Geometry relaxation             ...        0.095 sec (=   0.002 min)   0.0 %
Numerical frequency calculation ...    35476.790 sec (= 591.280 min)  90.2 %
                             ****ORCA TERMINATED NORMALLY****
TOTAL RUN TIME: 0 days 10 hours 43 minutes 42 seconds 495 msec
