 Entering Gaussian System, Link 0=/software/kemi/g16/avx2/g16/g16
 Initial command:
 /software/kemi/g16/avx2/g16/l1.exe "/scratch/20912144/Gau-50156.inp" -scrdir="/scratch/20912144/"
 Entering Link 1 = /software/kemi/g16/avx2/g16/l1.exe PID=     50164.
  
 Copyright (c) 1988,1990,1992,1993,1995,1998,2003,2009,2016,
            Gaussian, Inc.  All Rights Reserved.
  
 This is part of the Gaussian(R) 16 program.  It is based on
 the Gaussian(R) 09 system (copyright 2009, Gaussian, Inc.),
 the Gaussian(R) 03 system (copyright 2003, Gaussian, Inc.),
 the Gaussian(R) 98 system (copyright 1998, Gaussian, Inc.),
 the Gaussian(R) 94 system (copyright 1995, Gaussian, Inc.),
 the Gaussian 92(TM) system (copyright 1992, Gaussian, Inc.),
 the Gaussian 90(TM) system (copyright 1990, Gaussian, Inc.),
 the Gaussian 88(TM) system (copyright 1988, Gaussian, Inc.),
 the Gaussian 86(TM) system (copyright 1986, Carnegie Mellon
 University), and the Gaussian 82(TM) system (copyright 1983,
 Carnegie Mellon University). Gaussian is a federally registered
 trademark of Gaussian, Inc.
  
 This software contains proprietary and confidential information,
 including trade secrets, belonging to Gaussian, Inc.
  
 This software is provided under written license and may be
 used, copied, transmitted, or stored only in accord with that
 written license.
  
 The following legend is applicable only to US Government
 contracts under FAR:
  
                    RESTRICTED RIGHTS LEGEND
  
 Use, reproduction and disclosure by the US Government is
 subject to restrictions as set forth in subparagraphs (a)
 and (c) of the Commercial Computer Software - Restricted
 Rights clause in FAR 52.227-19.
  
 Gaussian, Inc.
 340 Quinnipiac St., Bldg. 40, Wallingford CT 06492
  
  
 ---------------------------------------------------------------
 Warning -- This program may not be used in any manner that
 competes with the business of Gaussian, Inc. or will provide
 assistance to any competitor of Gaussian, Inc.  The licensee
 of this program is prohibited from giving any competitor of
 Gaussian, Inc. access to this program.  By using this program,
 the user acknowledges that Gaussian, Inc. is engaged in the
 business of creating and licensing software in the field of
 computational chemistry and represents and warrants to the
 licensee that it is not a competitor of Gaussian, Inc. and that
 it will not use this program in any manner prohibited above.
 ---------------------------------------------------------------
  

 Cite this work as:
 Gaussian 16, Revision A.03,
 M. J. Frisch, G. W. Trucks, H. B. Schlegel, G. E. Scuseria, 
 M. A. Robb, J. R. Cheeseman, G. Scalmani, V. Barone, 
 G. A. Petersson, H. Nakatsuji, X. Li, M. Caricato, A. V. Marenich, 
 J. Bloino, B. G. Janesko, R. Gomperts, B. Mennucci, H. P. Hratchian, 
 J. V. Ortiz, A. F. Izmaylov, J. L. Sonnenberg, D. Williams-Young, 
 F. Ding, F. Lipparini, F. Egidi, J. Goings, B. Peng, A. Petrone, 
 T. Henderson, D. Ranasinghe, V. G. Zakrzewski, J. Gao, N. Rega, 
 G. Zheng, W. Liang, M. Hada, M. Ehara, K. Toyota, R. Fukuda, 
 J. Hasegawa, M. Ishida, T. Nakajima, Y. Honda, O. Kitao, H. Nakai, 
 T. Vreven, K. Throssell, J. A. Montgomery, Jr., J. E. Peralta, 
 F. Ogliaro, M. J. Bearpark, J. J. Heyd, E. N. Brothers, K. N. Kudin, 
 V. N. Staroverov, T. A. Keith, R. Kobayashi, J. Normand, 
 K. Raghavachari, A. P. Rendell, J. C. Burant, S. S. Iyengar, 
 J. Tomasi, M. Cossi, J. M. Millam, M. Klene, C. Adamo, R. Cammi, 
 J. W. Ochterski, R. L. Martin, K. Morokuma, O. Farkas, 
 J. B. Foresman, and D. J. Fox, Gaussian, Inc., Wallingford CT, 2016.
 
 ******************************************
 Gaussian 16:  ES64L-G16RevA.03 25-Dec-2016
                 4-Mar-2021 
 ******************************************
 %mem=8GB
 %nprocshared=8
 Will use up to    8 processors via shared memory.
 --------------------------------------------------------
 # td=(nstates=30) wb97xd cc-pvdz scf=(qc,maxcycles=1000)
 --------------------------------------------------------
 1/38=1,172=1/1;
 2/12=2,17=6,18=5,40=1/2;
 3/5=16,11=9,25=1,30=1,74=-58/1,2,3,8;
 4//1;
 5/5=2,7=1000,8=3,38=5/8;
 8/6=1,10=1,108=30/1;
 9/41=30,42=1,70=2/14;
 6/7=2,8=2,9=2,10=2/1;
 99/5=1,9=1/99;
 ------------
 ./ethene.xyz
 ------------
 Symbolic Z-matrix:
 Charge =  0 Multiplicity = 1
 H                     0.        0.92327   1.23829 
 H                     0.       -0.92327   1.23829 
 H                     0.        0.92327  -1.23829 
 H                     0.       -0.92327  -1.23829 
 C                     0.        0.        0.66819 
 C                     0.        0.       -0.66819 
 
                          Input orientation:                          
 ---------------------------------------------------------------------
 Center     Atomic      Atomic             Coordinates (Angstroms)
 Number     Number       Type             X           Y           Z
 ---------------------------------------------------------------------
      1          1           0        0.000000    0.923270    1.238290
      2          1           0        0.000000   -0.923270    1.238290
      3          1           0        0.000000    0.923270   -1.238290
      4          1           0        0.000000   -0.923270   -1.238290
      5          6           0        0.000000    0.000000    0.668190
      6          6           0        0.000000    0.000000   -0.668190
 ---------------------------------------------------------------------
                    Distance matrix (angstroms):
                    1          2          3          4          5
     1  H    0.000000
     2  H    1.846540   0.000000
     3  H    2.476580   3.089200   0.000000
     4  H    3.089200   2.476580   1.846540   0.000000
     5  C    1.085100   1.085100   2.118276   2.118276   0.000000
     6  C    2.118276   2.118276   1.085100   1.085100   1.336380
                    6
     6  C    0.000000
 Stoichiometry    C2H4
 Framework group  D2H[C2"(C.C),SG(H4)]
 Deg. of freedom     3
 Full point group                 D2H     NOp   8
 Largest Abelian subgroup         D2H     NOp   8
 Largest concise Abelian subgroup D2      NOp   4
                         Standard orientation:                         
 ---------------------------------------------------------------------
 Center     Atomic      Atomic             Coordinates (Angstroms)
 Number     Number       Type             X           Y           Z
 ---------------------------------------------------------------------
      1          1           0        0.000000    0.923270    1.238290
      2          1           0       -0.000000   -0.923270    1.238290
      3          1           0        0.000000    0.923270   -1.238290
      4          1           0       -0.000000   -0.923270   -1.238290
      5          6           0        0.000000    0.000000    0.668190
      6          6           0        0.000000    0.000000   -0.668190
 ---------------------------------------------------------------------
 Rotational constants (GHZ):         147.0667912          29.9095485          24.8547424
 Standard basis: CC-pVDZ (5D, 7F)
 There are    12 symmetry adapted cartesian basis functions of AG  symmetry.
 There are     2 symmetry adapted cartesian basis functions of B1G symmetry.
 There are     4 symmetry adapted cartesian basis functions of B2G symmetry.
 There are     7 symmetry adapted cartesian basis functions of B3G symmetry.
 There are     2 symmetry adapted cartesian basis functions of AU  symmetry.
 There are    12 symmetry adapted cartesian basis functions of B1U symmetry.
 There are     7 symmetry adapted cartesian basis functions of B2U symmetry.
 There are     4 symmetry adapted cartesian basis functions of B3U symmetry.
 There are    11 symmetry adapted basis functions of AG  symmetry.
 There are     2 symmetry adapted basis functions of B1G symmetry.
 There are     4 symmetry adapted basis functions of B2G symmetry.
 There are     7 symmetry adapted basis functions of B3G symmetry.
 There are     2 symmetry adapted basis functions of AU  symmetry.
 There are    11 symmetry adapted basis functions of B1U symmetry.
 There are     7 symmetry adapted basis functions of B2U symmetry.
 There are     4 symmetry adapted basis functions of B3U symmetry.
    48 basis functions,    94 primitive gaussians,    50 cartesian basis functions
     8 alpha electrons        8 beta electrons
       nuclear repulsion energy        33.2980973011 Hartrees.
 NAtoms=    6 NActive=    6 NUniq=    2 SFac= 4.00D+00 NAtFMM=   60 NAOKFM=F Big=F
 Integral buffers will be    131072 words long.
 Raffenetti 1 integral format.
 Two-electron integral symmetry is turned on.
 Nuclear repulsion after empirical dispersion term =       33.2972649681 Hartrees.
 One-electron integrals computed using PRISM.
 NBasis=    48 RedAO= T EigKep=  4.87D-03  NBF=    11     2     4     7     2    11     7     4
 NBsUse=    48 1.00D-06 EigRej= -1.00D+00 NBFU=    11     2     4     7     2    11     7     4
 ExpMin= 1.22D-01 ExpMax= 6.67D+03 ExpMxC= 2.28D+02 IAcc=3 IRadAn=         5 AccDes= 0.00D+00
 Harris functional with IExCor= 4639 and IRadAn=       5 diagonalized for initial guess.
 HarFok:  IExCor= 4639 AccDes= 0.00D+00 IRadAn=         5 IDoV= 1 UseB2=F ITyADJ=14
 ICtDFT=  3500011 ScaDFX=  1.000000  1.000000  1.000000  1.000000
 FoFCou: FMM=F IPFlag=           0 FMFlag=      100000 FMFlg1=           0
         NFxFlg=           0 DoJE=T BraDBF=F KetDBF=T FulRan=T
         wScrn=  0.000000 ICntrl=       500 IOpCl=  0 I1Cent=   200000004 NGrid=           0
         NMat0=    1 NMatS0=      1 NMatT0=    0 NMatD0=    1 NMtDS0=    0 NMtDT0=    0
 Petite list used in FoFCou.
 Initial guess orbital symmetries:
       Occupied  (AG) (B1U) (AG) (B1U) (B2U) (AG) (B3G) (B3U)
       Virtual   (B2G) (AG) (B2U) (B1U) (B3G) (B1U) (AG) (B2U)
                 (B3U) (AG) (B1U) (B2G) (B2U) (B3G) (B1U) (AG)
                 (B1G) (B3U) (B3G) (B1U) (AU) (AG) (B2U) (B3G)
                 (B2G) (AG) (B1U) (B2U) (B1G) (B3U) (B1U) (B2G)
                 (AU) (B3G) (AG) (B1U) (AG) (B2U) (B1U) (B3G)
 The electronic state of the initial guess is 1-AG.
 Keep R1 ints in memory in symmetry-blocked form, NReq=8362140.
 Gradient too large for Newton-Raphson -- use scaled steepest descent instead.
 Gradient too large for Newton-Raphson -- use scaled steepest descent instead.
     Accept linear search using points  2 and  3.
 Gradient too large for Newton-Raphson -- use scaled steepest descent instead.
 LinEq1:  Iter=  0 NonCon=     1 RMS=1.19D-04 Max=9.66D-04 NDo=     1
 AX will form     1 AO Fock derivatives at one time.
 LinEq1:  Iter=  1 NonCon=     1 RMS=4.93D-05 Max=5.76D-04 NDo=     1
 LinEq1:  Iter=  2 NonCon=     1 RMS=2.33D-06 Max=1.53D-05 NDo=     1
 LinEq1:  Iter=  3 NonCon=     1 RMS=2.23D-07 Max=1.78D-06 NDo=     1
 LinEq1:  Iter=  4 NonCon=     1 RMS=2.61D-08 Max=1.87D-07 NDo=     1
 LinEq1:  Iter=  5 NonCon=     1 RMS=3.62D-09 Max=2.34D-08 NDo=     1
 LinEq1:  Iter=  6 NonCon=     0 RMS=3.39D-10 Max=2.48D-09 NDo=     1
 Linear equations converged to 2.530D-09 2.530D-08 after     6 iterations.
     Minimum is close to point  2 DX=  3.80D-04 DF= -1.09D-12 DXR=  3.80D-04 DFR=  1.44D-07 which will be used.
 LinEq1:  Iter=  0 NonCon=     1 RMS=5.08D-08 Max=4.45D-07 NDo=     1
 LinEq1:  Iter=  1 NonCon=     1 RMS=1.68D-08 Max=1.37D-07 NDo=     1
 LinEq1:  Iter=  2 NonCon=     1 RMS=2.35D-09 Max=2.49D-08 NDo=     1
 LinEq1:  Iter=  3 NonCon=     1 RMS=2.39D-10 Max=1.69D-09 NDo=     1
 LinEq1:  Iter=  4 NonCon=     1 RMS=3.81D-11 Max=2.79D-10 NDo=     1
 LinEq1:  Iter=  5 NonCon=     0 RMS=3.98D-12 Max=3.01D-11 NDo=     1
 Linear equations converged to 1.440D-11 1.440D-10 after     5 iterations.
 SCF Done:  E(RwB97XD) =  -78.5606504977     a.u. after    6 cycles
            Convg  =    0.1694D-09                    25 Fock formations.
              S**2 =  0.0000                  -V/T =  2.0083
 DoSCS=F DFT=T ScalE2(SS,OS)=  1.000000  1.000000
 ExpMin= 1.22D-01 ExpMax= 6.67D+03 ExpMxC= 2.28D+02 IAcc=3 IRadAn=         5 AccDes= 0.00D+00
 HarFok:  IExCor=  205 AccDes= 0.00D+00 IRadAn=         5 IDoV=-2 UseB2=F ITyADJ=14
 ICtDFT= 12500011 ScaDFX=  1.000000  1.000000  1.000000  1.000000
 Range of M.O.s used for correlation:     3    48
 NBasis=    48 NAE=     8 NBE=     8 NFC=     2 NFV=     0
 NROrb=     46 NOA=     6 NOB=     6 NVA=    40 NVB=    40
 Keep R1, R2, and R3 ints in memory in symmetry-blocked form, NReq=40391512.
 Orbital symmetries:
       Occupied  (AG) (B1U) (AG) (B1U) (B2U) (AG) (B3G) (B3U)
       Virtual   (B2G) (AG) (B2U) (B1U) (B3G) (B1U) (AG) (B2U)
                 (B3U) (AG) (B1U) (B2G) (B2U) (B3G) (B1U) (AG)
                 (B1G) (B3U) (B3G) (B1U) (AU) (AG) (B3G) (B2U)
                 (B2G) (AG) (B1U) (B2U) (B1G) (B3U) (B2G) (B1U)
                 (AU) (B3G) (AG) (B1U) (AG) (B2U) (B1U) (B3G)
   240 initial guesses have been made.
 Convergence on wavefunction:    0.001000000000000
 Iteration     1 Dimension   240 NMult     0 NNew    240
 CISAX will form   240 AO SS matrices at one time.
 New state      2 was old state      3
 New state      3 was old state      2
 New state      5 was old state      6
 New state      6 was old state      5
 New state      8 was old state     11
 New state     10 was old state      8
 New state     11 was old state     10
 New state     15 was old state     18
 New state     17 was old state     15
 New state     18 was old state     20
 New state     20 was old state     17
 New state     22 was old state     25
 New state     24 was old state     27
 New state     25 was old state     22
 New state     26 was old state     24
 New state     27 was old state     26
 New state     30 was old state     31
 ***********************************************************************
 Excited states from <AA,BB:AA,BB> singles matrix:
 ***********************************************************************
 
 Ground to excited state transition densities written to RWF  633
 Ground to excited state transition electric dipole moments (Au):
       state          X           Y           Z        Dip. S.      Osc.
         1        -0.0000      0.0000     -1.3959      1.9485      0.3858
         2         0.0000     -0.0000      0.0000      0.0000      0.0000
         3         0.3186      0.0000     -0.0000      0.1015      0.0222
         4         0.0000      0.0000     -0.0000      0.0000      0.0000
         5        -0.0000      0.0000      0.0000      0.0000      0.0000
         6        -0.0000     -0.0000     -0.0000      0.0000      0.0000
         7        -0.0000      0.0000     -0.0000      0.0000      0.0000
         8        -0.0000      0.0000     -0.0000      0.0000      0.0000
         9        -0.0000      0.0000     -0.0000      0.0000      0.0000
        10        -0.0000      0.0000     -1.1310      1.2792      0.3825
        11        -0.0000      1.2480      0.0000      1.5575      0.4738
        12        -0.0000     -0.0000     -0.0000      0.0000      0.0000
        13         0.0000     -0.7431     -0.0000      0.5522      0.1851
        14         0.0000      0.0000      0.9905      0.9811      0.3385
        15        -0.0000      0.0000     -0.0000      0.0000      0.0000
        16         0.0000      0.9518     -0.0000      0.9059      0.3257
        17         0.0000      0.0000     -0.0000      0.0000      0.0000
        18        -0.5565     -0.0000      0.0000      0.3097      0.1174
        19        -0.0000     -0.0000     -0.0000      0.0000      0.0000
        20         0.0000      0.0000     -0.0000      0.0000      0.0000
        21         0.0000     -0.0000      0.0000      0.0000      0.0000
        22         0.1839      0.0000     -0.0000      0.0338      0.0142
        23         0.0000     -0.8836     -0.0000      0.7807      0.3341
        24        -0.0000     -0.0000     -0.0000      0.0000      0.0000
        25        -0.0000      0.0000     -0.2364      0.0559      0.0244
        26        -0.0000     -0.0000      0.4241      0.1799      0.0800
        27        -0.0000     -0.0000      0.0000      0.0000      0.0000
        28         0.0000     -0.0000      0.0000      0.0000      0.0000
        29         0.0000      0.0000      0.7815      0.6107      0.2882
        30        -0.0000      0.0000      0.0000      0.0000      0.0000
 Ground to excited state transition velocity dipole moments (Au):
       state          X           Y           Z        Dip. S.      Osc.
         1        -0.0000     -0.0000      0.4107      0.1687      0.3786
         2         0.0000      0.0000     -0.0000      0.0000      0.0000
         3        -0.1253     -0.0000      0.0000      0.0157      0.0319
         4         0.0000     -0.0000      0.0000      0.0000      0.0000
         5         0.0000     -0.0000     -0.0000      0.0000      0.0000
         6         0.0000      0.0000      0.0000      0.0000      0.0000
         7         0.0000     -0.0000     -0.0000      0.0000      0.0000
         8         0.0000     -0.0000      0.0000      0.0000      0.0000
         9        -0.0000      0.0000      0.0000      0.0000      0.0000
        10         0.0000     -0.0000      0.5077      0.2578      0.3832
        11         0.0000     -0.5939     -0.0000      0.3528      0.5154
        12         0.0000      0.0000      0.0000      0.0000      0.0000
        13        -0.0000      0.3823      0.0000      0.1462      0.1938
        14        -0.0000     -0.0000     -0.5291      0.2800      0.3607
        15         0.0000     -0.0000      0.0000      0.0000      0.0000
        16        -0.0000     -0.5402      0.0000      0.2919      0.3608
        17        -0.0000     -0.0000      0.0000      0.0000      0.0000
        18         0.3797      0.0000     -0.0000      0.1442      0.1690
        19         0.0000      0.0000      0.0000      0.0000      0.0000
        20        -0.0000     -0.0000     -0.0000      0.0000      0.0000
        21         0.0000      0.0000      0.0000      0.0000      0.0000
        22        -0.1312      0.0000      0.0000      0.0172      0.0182
        23        -0.0000      0.5523      0.0000      0.3051      0.3168
        24         0.0000      0.0000      0.0000      0.0000      0.0000
        25         0.0000     -0.0000      0.1618      0.0262      0.0267
        26         0.0000      0.0000     -0.3010      0.0906      0.0905
        27         0.0000      0.0000      0.0000      0.0000      0.0000
        28        -0.0000      0.0000     -0.0000      0.0000      0.0000
        29        -0.0000     -0.0000     -0.5858      0.3432      0.3232
        30         0.0000      0.0000      0.0000      0.0000      0.0000
 Ground to excited state transition magnetic dipole moments (Au):
       state          X           Y           Z
         1        -0.0000      0.0000     -0.0000
         2        -0.0000     -0.0000     -1.4221
         3         0.0000      0.0000     -0.0000
         4        -0.0000      0.0000     -0.0783
         5        -0.0000      1.7741     -0.0000
         6         0.0000      0.4665     -0.0000
         7         1.6518      0.0000     -0.0000
         8         0.0000      0.0000      0.0000
         9        -0.0000      0.0000      0.0000
        10        -0.0000      0.0000     -0.0000
        11         0.0000     -0.0000     -0.0000
        12         0.0000     -0.0000      0.0000
        13         0.0000     -0.0000      0.0000
        14         0.0000      0.0000      0.0000
        15         0.0000      0.3694      0.0000
        16         0.0000     -0.0000      0.0000
        17         0.0000     -0.0000      0.0000
        18        -0.0000     -0.0000     -0.0000
        19         0.1168     -0.0000     -0.0000
        20         0.0000      0.0000     -0.0000
        21         0.2648      0.0000     -0.0000
        22        -0.0000      0.0000     -0.0000
        23         0.0000     -0.0000      0.0000
        24         0.0000     -0.0000     -0.2739
        25         0.0000      0.0000      0.0000
        26         0.0000      0.0000     -0.0000
        27        -0.0859      0.0000      0.0000
        28        -0.0000     -0.0000     -0.0000
        29         0.0000     -0.0000      0.0000
        30         1.9272     -0.0000      0.0000
 Ground to excited state transition velocity quadrupole moments (Au):
       state          XX          YY          ZZ          XY          XZ          YZ
         1         0.0000     -0.0000     -0.0000      0.0000      0.0000      0.0000
         2         0.0000     -0.0000      0.0000      0.2733     -0.0000      0.0000
         3        -0.0000      0.0000      0.0000      0.0000      0.0000     -0.0000
         4         0.0000      0.0000     -0.0000      0.1520     -0.0000     -0.0000
         5         0.0000     -0.0000     -0.0000      0.0000      0.4171      0.0000
         6        -0.0000     -0.0000      0.0000      0.0000     -0.1480     -0.0000
         7         0.0000      0.0000      0.0000      0.0000      0.0000     -1.4833
         8        -0.0000      0.0000     -0.0000      0.0000     -0.0000     -0.0000
         9        -0.0000     -0.0000      0.0000      0.0000      0.0000     -0.0000
        10        -0.0000     -0.0000     -0.0000      0.0000      0.0000      0.0000
        11        -0.0000     -0.0000     -0.0000      0.0000     -0.0000     -0.0000
        12        -0.0247     -0.6397     -0.5529      0.0000     -0.0000      0.0000
        13         0.0000     -0.0000     -0.0000     -0.0000     -0.0000     -0.0000
        14        -0.0000     -0.0000      0.0000     -0.0000      0.0000     -0.0000
        15        -0.0000     -0.0000     -0.0000     -0.0000     -0.0944      0.0000
        16         0.0000     -0.0000     -0.0000     -0.0000      0.0000     -0.0000
        17        -0.0176      1.7354      1.7503     -0.0000     -0.0000     -0.0000
        18         0.0000      0.0000      0.0000     -0.0000     -0.0000      0.0000
        19         0.0000     -0.0000      0.0000      0.0000     -0.0000     -1.6847
        20        -0.0938      1.0652      0.8500     -0.0000      0.0000     -0.0000
        21         0.0000     -0.0000      0.0000      0.0000      0.0000      0.9816
        22         0.0000      0.0000     -0.0000     -0.0000     -0.0000      0.0000
        23        -0.0000      0.0000      0.0000      0.0000     -0.0000     -0.0000
        24        -0.0000     -0.0000     -0.0000     -0.6229     -0.0000     -0.0000
        25         0.0000     -0.0000     -0.0000      0.0000      0.0000      0.0000
        26         0.0000     -0.0000     -0.0000      0.0000     -0.0000     -0.0000
        27         0.0000     -0.0000     -0.0000     -0.0000      0.0000      1.1664
        28         0.6967     -0.8105     -1.6889      0.0000     -0.0000     -0.0000
        29        -0.0000      0.0000      0.0000     -0.0000      0.0000      0.0000
        30         0.0000     -0.0000      0.0000      0.0000     -0.0000     -0.1320
 <0|del|b> * <b|rxdel|0> + <0|del|b> * <b|delr+rdel|0>
 Rotatory Strengths (R) in cgs (10**-40 erg-esu-cm/Gauss)
       state          XX          YY          ZZ    R(velocity)    E-M Angle
         1        -0.0000     -0.0000      0.0000     -0.0000       90.00
         2         0.0000      0.0000     -0.0000      0.0000       90.00
         3         0.0000     -0.0000     -0.0000     -0.0000       90.00
         4         0.0000     -0.0000     -0.0000     -0.0000       90.00
         5        -0.0000      0.0000     -0.0000     -0.0000       90.00
         6         0.0000     -0.0000      0.0000      0.0000       90.00
         7        -0.0000      0.0000      0.0000      0.0000       90.00
         8         0.0000     -0.0000      0.0000      0.0000       90.00
         9         0.0000     -0.0000      0.0000      0.0000       90.00
        10         0.0000     -0.0000     -0.0000     -0.0000       90.00
        11         0.0000      0.0000      0.0000      0.0000       90.00
        12         0.0000      0.0000     -0.0000      0.0000       90.00
        13        -0.0000      0.0000     -0.0000     -0.0000       90.00
        14         0.0000     -0.0000     -0.0000     -0.0000       90.00
        15        -0.0000      0.0000     -0.0000     -0.0000       90.00
        16         0.0000      0.0000      0.0000      0.0000       90.00
        17        -0.0000      0.0000      0.0000      0.0000       90.00
        18        -0.0000      0.0000     -0.0000     -0.0000       90.00
        19         0.0000     -0.0000      0.0000      0.0000       90.00
        20         0.0000      0.0000     -0.0000     -0.0000       90.00
        21         0.0000      0.0000     -0.0000      0.0000       90.00
        22        -0.0000      0.0000      0.0000      0.0000       90.00
        23        -0.0000      0.0000     -0.0000     -0.0000       90.00
        24        -0.0000      0.0000     -0.0000     -0.0000       90.00
        25         0.0000     -0.0000     -0.0000      0.0000       90.00
        26        -0.0000      0.0000      0.0000      0.0000       90.00
        27        -0.0000      0.0000     -0.0000     -0.0000       90.00
        28        -0.0000      0.0000     -0.0000     -0.0000       90.00
        29         0.0000     -0.0000      0.0000     -0.0000       90.00
        30         0.0000      0.0000      0.0000      0.0000       90.00
 1/2[<0|r|b>*<b|rxdel|0> + (<0|rxdel|b>*<b|r|0>)*]
 Rotatory Strengths (R) in cgs (10**-40 erg-esu-cm/Gauss)
       state          XX          YY          ZZ     R(length)
         1        -0.0000     -0.0000     -0.0000     -0.0000
         2         0.0000     -0.0000      0.0000      0.0000
         3        -0.0000     -0.0000     -0.0000     -0.0000
         4         0.0000     -0.0000     -0.0000     -0.0000
         5        -0.0000     -0.0000      0.0000     -0.0000
         6         0.0000      0.0000     -0.0000      0.0000
         7         0.0000     -0.0000     -0.0000      0.0000
         8         0.0000     -0.0000      0.0000      0.0000
         9        -0.0000     -0.0000      0.0000      0.0000
        10        -0.0000     -0.0000     -0.0000     -0.0000
        11         0.0000      0.0000      0.0000      0.0000
        12         0.0000     -0.0000      0.0000     -0.0000
        13        -0.0000     -0.0000      0.0000     -0.0000
        14        -0.0000     -0.0000     -0.0000     -0.0000
        15         0.0000     -0.0000      0.0000     -0.0000
        16        -0.0000      0.0000      0.0000      0.0000
        17        -0.0000      0.0000      0.0000      0.0000
        18        -0.0000     -0.0000      0.0000     -0.0000
        19         0.0000     -0.0000     -0.0000      0.0000
        20        -0.0000     -0.0000     -0.0000     -0.0000
        21        -0.0000      0.0000      0.0000     -0.0000
        22         0.0000     -0.0000     -0.0000      0.0000
        23        -0.0000     -0.0000      0.0000     -0.0000
        24         0.0000     -0.0000     -0.0000     -0.0000
        25         0.0000     -0.0000      0.0000      0.0000
        26         0.0000      0.0000      0.0000      0.0000
        27        -0.0000      0.0000     -0.0000     -0.0000
        28         0.0000     -0.0000      0.0000     -0.0000
        29        -0.0000      0.0000     -0.0000     -0.0000
        30         0.0000      0.0000     -0.0000      0.0000
  1/2[<0|del|b>*<b|r|0> + (<0|r|b>*<b|del|0>)*] (Au)
       state          X           Y           Z        Dip. S.   Osc.(frdel)
         1         0.0000     -0.0000     -0.5733      0.5733      0.3822
         2         0.0000     -0.0000     -0.0000      0.0000      0.0000
         3        -0.0399     -0.0000     -0.0000      0.0399      0.0266
         4         0.0000     -0.0000     -0.0000      0.0000      0.0000
         5        -0.0000     -0.0000     -0.0000      0.0000      0.0000
         6        -0.0000     -0.0000     -0.0000      0.0000      0.0000
         7        -0.0000     -0.0000      0.0000      0.0000      0.0000
         8        -0.0000     -0.0000     -0.0000      0.0000      0.0000
         9         0.0000      0.0000     -0.0000      0.0000      0.0000
        10        -0.0000     -0.0000     -0.5743      0.5743      0.3828
        11        -0.0000     -0.7412     -0.0000      0.7412      0.4941
        12        -0.0000     -0.0000     -0.0000      0.0000      0.0000
        13        -0.0000     -0.2841     -0.0000      0.2841      0.1894
        14        -0.0000     -0.0000     -0.5241      0.5241      0.3494
        15        -0.0000     -0.0000     -0.0000      0.0000      0.0000
        16        -0.0000     -0.5142     -0.0000      0.5142      0.3428
        17        -0.0000     -0.0000     -0.0000      0.0000      0.0000
        18        -0.2113     -0.0000     -0.0000      0.2113      0.1409
        19        -0.0000     -0.0000     -0.0000      0.0000      0.0000
        20        -0.0000     -0.0000      0.0000      0.0000      0.0000
        21         0.0000     -0.0000      0.0000      0.0000      0.0000
        22        -0.0241      0.0000     -0.0000      0.0241      0.0161
        23        -0.0000     -0.4880     -0.0000      0.4880      0.3253
        24        -0.0000     -0.0000     -0.0000      0.0000      0.0000
        25        -0.0000     -0.0000     -0.0383      0.0383      0.0255
        26        -0.0000     -0.0000     -0.1276      0.1276      0.0851
        27        -0.0000     -0.0000      0.0000     -0.0000     -0.0000
        28        -0.0000     -0.0000     -0.0000      0.0000      0.0000
        29        -0.0000     -0.0000     -0.4578      0.4578      0.3052
        30        -0.0000      0.0000      0.0000     -0.0000     -0.0000

 Excitation energies and oscillator strengths:
 
 Excited State   1:      Singlet-B1U    8.0810 eV  153.43 nm  f=0.3858  <S**2>=0.000
       8 ->  9         0.70269
 This state for optimization and/or second-order correction.
 Total Energy, E(TD-HF/TD-DFT) =  -78.2636788945    
 Copying the excited state density for this state as the 1-particle RhoCI density.
 
 Excited State   2:      Singlet-B1G    8.3266 eV  148.90 nm  f=0.0000  <S**2>=0.000
       7 ->  9         0.70271
 
 Excited State   3:      Singlet-B3U    8.9242 eV  138.93 nm  f=0.0222  <S**2>=0.000
       8 -> 10         0.70613
 
 Excited State   4:      Singlet-B1G    9.4434 eV  131.29 nm  f=0.0000  <S**2>=0.000
       8 -> 11         0.70149
 
 Excited State   5:      Singlet-B2G    9.6894 eV  127.96 nm  f=0.0000  <S**2>=0.000
       6 ->  9         0.67417
       8 -> 12        -0.20709
 
 Excited State   6:      Singlet-B2G   10.0868 eV  122.92 nm  f=0.0000  <S**2>=0.000
       6 ->  9         0.20498
       8 -> 12         0.67521
 
 Excited State   7:      Singlet-B3G   11.2665 eV  110.05 nm  f=0.0000  <S**2>=0.000
       7 -> 10         0.70089
 
 Excited State   8:      Singlet-AU    11.3585 eV  109.16 nm  f=0.0000  <S**2>=0.000
       5 ->  9         0.69923
       8 -> 13         0.10089
 
 Excited State   9:      Singlet-AU    12.0436 eV  102.95 nm  f=0.0000  <S**2>=0.000
       5 ->  9        -0.10111
       8 -> 13         0.69838
 
 Excited State  10:      Singlet-B1U   12.2038 eV  101.59 nm  f=0.3825  <S**2>=0.000
       7 -> 11         0.70261
 
 Excited State  11:      Singlet-B2U   12.4172 eV   99.85 nm  f=0.4738  <S**2>=0.000
       5 -> 10         0.12140
       7 -> 12         0.69449
 
 Excited State  12:      Singlet-AG    13.2748 eV   93.40 nm  f=0.0000  <S**2>=0.000
       6 -> 10         0.69689
 
 Excited State  13:      Singlet-B2U   13.6831 eV   90.61 nm  f=0.1851  <S**2>=0.000
       6 -> 11         0.69682
 
 Excited State  14:      Singlet-B1U   14.0822 eV   88.04 nm  f=0.3385  <S**2>=0.000
       6 -> 12         0.70134
 
 Excited State  15:      Singlet-B2G   14.6488 eV   84.64 nm  f=0.0000  <S**2>=0.000
       8 -> 14         0.70561
 
 Excited State  16:      Singlet-B2U   14.6727 eV   84.50 nm  f=0.3257  <S**2>=0.000
       5 -> 10         0.69276
       7 -> 12        -0.12298
 
 Excited State  17:      Singlet-AG    14.8276 eV   83.62 nm  f=0.0000  <S**2>=0.000
       7 -> 13         0.67978
       8 -> 17         0.12342
 
 Excited State  18:      Singlet-B3U   15.4740 eV   80.12 nm  f=0.1174  <S**2>=0.000
       4 ->  9         0.68903
       8 -> 18         0.12862
 
 Excited State  19:      Singlet-B3G   15.5439 eV   79.76 nm  f=0.0000  <S**2>=0.000
       5 -> 12         0.65974
       6 -> 13        -0.22893
 
 Excited State  20:      Singlet-AG    15.5931 eV   79.51 nm  f=0.0000  <S**2>=0.000
       5 -> 11         0.68111
       7 -> 13        -0.12397
       8 -> 17         0.10430
 
 Excited State  21:      Singlet-B3G   15.9493 eV   77.74 nm  f=0.0000  <S**2>=0.000
       4 -> 11         0.15216
       5 -> 12         0.23159
       6 -> 13         0.64858
 
 Excited State  22:      Singlet-B3U   17.1481 eV   72.30 nm  f=0.0142  <S**2>=0.000
       8 -> 15         0.70205
 
 Excited State  23:      Singlet-B2U   17.4686 eV   70.98 nm  f=0.3341  <S**2>=0.000
       7 -> 14         0.69187
 
 Excited State  24:      Singlet-B1G   17.6341 eV   70.31 nm  f=0.0000  <S**2>=0.000
       8 -> 16         0.70574
 
 Excited State  25:      Singlet-B1U   17.7975 eV   69.66 nm  f=0.0244  <S**2>=0.000
       4 -> 10         0.28930
       5 -> 13         0.64016
 
 Excited State  26:      Singlet-B1U   18.1555 eV   68.29 nm  f=0.0800  <S**2>=0.000
       4 -> 10         0.59072
       5 -> 13        -0.24808
       6 -> 14         0.26826
 
 Excited State  27:      Singlet-B3G   18.4668 eV   67.14 nm  f=0.0000  <S**2>=0.000
       4 -> 11         0.68542
       6 -> 13        -0.15597
 
 Excited State  28:      Singlet-AG    18.7430 eV   66.15 nm  f=0.0000  <S**2>=0.000
       4 -> 12         0.57326
       6 -> 15        -0.10935
       8 -> 17        -0.39059
 
 Excited State  29:      Singlet-B1U   19.2591 eV   64.38 nm  f=0.2882  <S**2>=0.000
       4 -> 10        -0.21426
       5 -> 13         0.10222
       6 -> 14         0.60441
       7 -> 16         0.21066
       8 -> 20        -0.16188
 
 Excited State  30:      Singlet-B3G   19.5550 eV   63.40 nm  f=0.0000  <S**2>=0.000
       5 -> 14        -0.25189
       7 -> 15         0.64767
       7 -> 18         0.10580
 SavETr:  write IOETrn=   770 NScale= 10 NData=  16 NLR=1 NState=   30 LETran=     550.

 **********************************************************************

            Population analysis using the SCF density.

 **********************************************************************

 Orbital symmetries:
       Occupied  (AG) (B1U) (AG) (B1U) (B2U) (AG) (B3G) (B3U)
       Virtual   (B2G) (AG) (B2U) (B1U) (B3G) (B1U) (AG) (B2U)
                 (B3U) (AG) (B1U) (B2G) (B2U) (B3G) (B1U) (AG)
                 (B1G) (B3U) (B3G) (B1U) (AU) (AG) (B3G) (B2U)
                 (B2G) (AG) (B1U) (B2U) (B1G) (B3U) (B2G) (B1U)
                 (AU) (B3G) (AG) (B1U) (AG) (B2U) (B1U) (B3G)
 The electronic state is 1-AG.
 Alpha  occ. eigenvalues --  -10.29854 -10.29773  -0.85804  -0.67192  -0.55391
 Alpha  occ. eigenvalues --   -0.50222  -0.43561  -0.35283
 Alpha virt. eigenvalues --    0.08435   0.16616   0.18905   0.19883   0.27301
 Alpha virt. eigenvalues --    0.39389   0.49372   0.51078   0.56740   0.58522
 Alpha virt. eigenvalues --    0.64184   0.66278   0.73537   0.77281   0.81793
 Alpha virt. eigenvalues --    0.89163   0.98472   1.10211   1.10313   1.10985
 Alpha virt. eigenvalues --    1.13287   1.42749   1.56491   1.57548   1.63574
 Alpha virt. eigenvalues --    1.67231   1.67245   1.71790   1.78435   1.79090
 Alpha virt. eigenvalues --    2.02467   2.03036   2.16154   2.20767   2.29686
 Alpha virt. eigenvalues --    2.41945   2.46668   2.55440   2.86581   3.13218
          Condensed to atoms (all electrons):
               1          2          3          4          5          6
     1  H    0.632593  -0.046598  -0.014943   0.008146   0.395382  -0.020114
     2  H   -0.046598   0.632593   0.008146  -0.014943   0.395382  -0.020114
     3  H   -0.014943   0.008146   0.632593  -0.046598  -0.020114   0.395382
     4  H    0.008146  -0.014943  -0.046598   0.632593  -0.020114   0.395382
     5  C    0.395382   0.395382  -0.020114  -0.020114   4.601626   0.738906
     6  C   -0.020114  -0.020114   0.395382   0.395382   0.738906   4.601626
 Mulliken charges:
               1
     1  H    0.045535
     2  H    0.045535
     3  H    0.045535
     4  H    0.045535
     5  C   -0.091069
     6  C   -0.091069
 Sum of Mulliken charges =  -0.00000
 Mulliken charges with hydrogens summed into heavy atoms:
               1
     5  C   -0.000000
     6  C   -0.000000
 Electronic spatial extent (au):  <R**2>=             82.4867
 Charge=             -0.0000 electrons
 Dipole moment (field-independent basis, Debye):
    X=             -0.0000    Y=              0.0000    Z=             -0.0000  Tot=              0.0000
 Quadrupole moment (field-independent basis, Debye-Ang):
   XX=            -15.1620   YY=            -12.1790   ZZ=            -12.0343
   XY=              0.0000   XZ=             -0.0000   YZ=              0.0000
 Traceless Quadrupole moment (field-independent basis, Debye-Ang):
   XX=             -2.0369   YY=              0.9461   ZZ=              1.0908
   XY=              0.0000   XZ=             -0.0000   YZ=              0.0000
 Octapole moment (field-independent basis, Debye-Ang**2):
  XXX=             -0.0000  YYY=              0.0000  ZZZ=             -0.0000  XYY=             -0.0000
  XXY=             -0.0000  XXZ=              0.0000  XZZ=             -0.0000  YZZ=              0.0000
  YYZ=             -0.0000  XYZ=             -0.0000
 Hexadecapole moment (field-independent basis, Debye-Ang**3):
 XXXX=            -16.5090 YYYY=            -26.2583 ZZZZ=            -67.2197 XXXY=             -0.0000
 XXXZ=              0.0000 YYYX=             -0.0000 YYYZ=              0.0000 ZZZX=              0.0000
 ZZZY=             -0.0000 XXYY=             -7.7559 XXZZ=            -14.7598 YYZZ=            -13.2091
 XXYZ=              0.0000 YYXZ=              0.0000 ZZXY=              0.0000
 N-N= 3.329726496806D+01 E-N=-2.480794610781D+02  KE= 7.791776820516D+01
 Symmetry AG   KE= 3.748764698795D+01
 Symmetry B1G  KE= 1.731926406408D-33
 Symmetry B2G  KE= 2.999147198674D-32
 Symmetry B3G  KE= 2.078054437993D+00
 Symmetry AU   KE= 1.735883911090D-33
 Symmetry B1U  KE= 3.444516549045D+01
 Symmetry B2U  KE= 1.848016411177D+00
 Symmetry B3U  KE= 2.058884877584D+00
 1\1\GINC-NODE224\SP\RwB97XD TD-FC\CC-pVDZ\C2H4\THEOB\04-Mar-2021\0\\# 
 td=(nstates=30) wb97xd cc-pvdz scf=(qc,maxcycles=1000)\\./ethene.xyz\\
 0,1\H,0,0.,0.92327,1.23829\H,0,0.,-0.92327,1.23829\H,0,0.,0.92327,-1.2
 3829\H,0,0.,-0.92327,-1.23829\C,0,0.,0.,0.66819\C,0,0.,0.,-0.66819\\Ve
 rsion=ES64L-G16RevA.03\State=1-AG\HF=-78.5606505\RMSD=6.696e-12\PG=D02
 H [C2"(C1.C1),SG(H4)]\\@


 LAW OF COMPENSATION:
      NO CALCULATION IS EVER A COMPLETE FAILURE; IT 
      CAN ALWAYS SERVE AS A BAD EXAMPLE.

                                           -- ANON
 Job cpu time:       0 days  0 hours  0 minutes 45.8 seconds.
 Elapsed time:       0 days  0 hours  0 minutes  6.0 seconds.
 File lengths (MBytes):  RWF=     69 Int=      0 D2E=      0 Chk=      4 Scr=      1
 Normal termination of Gaussian 16 at Thu Mar  4 10:51:03 2021.
