 Entering Gaussian System, Link 0=/opt/gaussian/g16/sse4/g16/g16
 Initial command:
 /opt/gaussian/g16/sse4/g16/l1.exe "/scratch/1549348/Gau-1319.inp" -scrdir="/scratch/1549348/"
 Entering Link 1 = /opt/gaussian/g16/sse4/g16/l1.exe PID=      1325.
  
 Copyright (c) 1988,1990,1992,1993,1995,1998,2003,2009,2016,
            Gaussian, Inc.  All Rights Reserved.
  
 This is part of the Gaussian(R) 16 program.  It is based on
 the Gaussian(R) 09 system (copyright 2009, Gaussian, Inc.),
 the Gaussian(R) 03 system (copyright 2003, Gaussian, Inc.),
 the Gaussian(R) 98 system (copyright 1998, Gaussian, Inc.),
 the Gaussian(R) 94 system (copyright 1995, Gaussian, Inc.),
 the Gaussian 92(TM) system (copyright 1992, Gaussian, Inc.),
 the Gaussian 90(TM) system (copyright 1990, Gaussian, Inc.),
 the Gaussian 88(TM) system (copyright 1988, Gaussian, Inc.),
 the Gaussian 86(TM) system (copyright 1986, Carnegie Mellon
 University), and the Gaussian 82(TM) system (copyright 1983,
 Carnegie Mellon University). Gaussian is a federally registered
 trademark of Gaussian, Inc.
  
 This software contains proprietary and confidential information,
 including trade secrets, belonging to Gaussian, Inc.
  
 This software is provided under written license and may be
 used, copied, transmitted, or stored only in accord with that
 written license.
  
 The following legend is applicable only to US Government
 contracts under FAR:
  
                    RESTRICTED RIGHTS LEGEND
  
 Use, reproduction and disclosure by the US Government is
 subject to restrictions as set forth in subparagraphs (a)
 and (c) of the Commercial Computer Software - Restricted
 Rights clause in FAR 52.227-19.
  
 Gaussian, Inc.
 340 Quinnipiac St., Bldg. 40, Wallingford CT 06492
  
  
 ---------------------------------------------------------------
 Warning -- This program may not be used in any manner that
 competes with the business of Gaussian, Inc. or will provide
 assistance to any competitor of Gaussian, Inc.  The licensee
 of this program is prohibited from giving any competitor of
 Gaussian, Inc. access to this program.  By using this program,
 the user acknowledges that Gaussian, Inc. is engaged in the
 business of creating and licensing software in the field of
 computational chemistry and represents and warrants to the
 licensee that it is not a competitor of Gaussian, Inc. and that
 it will not use this program in any manner prohibited above.
 ---------------------------------------------------------------
  

 Cite this work as:
 Gaussian 16, Revision A.03,
 M. J. Frisch, G. W. Trucks, H. B. Schlegel, G. E. Scuseria, 
 M. A. Robb, J. R. Cheeseman, G. Scalmani, V. Barone, 
 G. A. Petersson, H. Nakatsuji, X. Li, M. Caricato, A. V. Marenich, 
 J. Bloino, B. G. Janesko, R. Gomperts, B. Mennucci, H. P. Hratchian, 
 J. V. Ortiz, A. F. Izmaylov, J. L. Sonnenberg, D. Williams-Young, 
 F. Ding, F. Lipparini, F. Egidi, J. Goings, B. Peng, A. Petrone, 
 T. Henderson, D. Ranasinghe, V. G. Zakrzewski, J. Gao, N. Rega, 
 G. Zheng, W. Liang, M. Hada, M. Ehara, K. Toyota, R. Fukuda, 
 J. Hasegawa, M. Ishida, T. Nakajima, Y. Honda, O. Kitao, H. Nakai, 
 T. Vreven, K. Throssell, J. A. Montgomery, Jr., J. E. Peralta, 
 F. Ogliaro, M. J. Bearpark, J. J. Heyd, E. N. Brothers, K. N. Kudin, 
 V. N. Staroverov, T. A. Keith, R. Kobayashi, J. Normand, 
 K. Raghavachari, A. P. Rendell, J. C. Burant, S. S. Iyengar, 
 J. Tomasi, M. Cossi, J. M. Millam, M. Klene, C. Adamo, R. Cammi, 
 J. W. Ochterski, R. L. Martin, K. Morokuma, O. Farkas, 
 J. B. Foresman, and D. J. Fox, Gaussian, Inc., Wallingford CT, 2016.
 
 ******************************************
 Gaussian 16:  ES64L-G16RevA.03 25-Dec-2016
                16-Dec-2021 
 ******************************************
 %chk=HF_Ethanol_gaus.chk
 %nprocshared=4
 Will use up to    4 processors via shared memory.
 %mem=4GB
 ----------------------------------------------
 #p opt freq hf/cc-pvdz geom=connectivity polar
 ----------------------------------------------
 1/18=20,19=15,38=1,57=2/1,3;
 2/9=110,12=2,17=6,18=5,40=1/2;
 3/5=16,11=9,25=1,30=1,71=1/1,2,3;
 4//1;
 5/5=2,38=5,98=1/2;
 6/7=2,8=2,9=2,10=2,28=1/1;
 7//1,2,3,16;
 1/18=20,19=15/3(2);
 2/9=110/2;
 99//99;
 2/9=110/2;
 3/5=16,11=9,25=1,30=1,71=1/1,2,3;
 4/5=5,16=3,69=1/1;
 5/5=2,38=5,98=1/2;
 7//1,2,3,16;
 1/18=20,19=15/3(-5);
 2/9=110/2;
 6/7=2,8=2,9=2,10=2,19=2,28=1/1;
 99/9=1/99;
 Leave Link    1 at Thu Dec 16 11:32:07 2021, MaxMem=   536870912 cpu:               0.1 elap:               0.0
 (Enter /opt/gaussian/g16/sse4/g16/l101.exe)
 -----------
 Ethanol.xyz
 -----------
 Symbolic Z-matrix:
 Charge =  0 Multiplicity = 1
 C                     1.0111    0.07708  -0.05953 
 C                     2.52569   0.07985  -0.0664 
 O                     3.00581   1.24365  -0.72365 
 H                     0.62516  -0.80571   0.4578 
 H                     0.61937   0.08556  -1.08199 
 H                     0.62645   0.97441   0.4362 
 H                     2.91751  -0.80185  -0.58251 
 H                     2.91316   0.08142   0.95654 
 H                     2.66453   1.22802  -1.63407 
 
 ITRead=  0  0  0  0  0  0  0  0  0
 MicOpt= -1 -1 -1 -1 -1 -1 -1 -1 -1
 NAtoms=      9 NQM=        9 NQMF=       0 NMMI=      0 NMMIF=      0
                NMic=       0 NMicF=      0.
                    Isotopes and Nuclear Properties:
 (Nuclear quadrupole moments (NQMom) in fm**2, nuclear magnetic moments (NMagM)
  in nuclear magnetons)

  Atom         1           2           3           4           5           6           7           8           9
 IAtWgt=          12          12          16           1           1           1           1           1           1
 AtmWgt=  12.0000000  12.0000000  15.9949146   1.0078250   1.0078250   1.0078250   1.0078250   1.0078250   1.0078250
 NucSpn=           0           0           0           1           1           1           1           1           1
 AtZEff=  -0.0000000  -0.0000000  -0.0000000  -0.0000000  -0.0000000  -0.0000000  -0.0000000  -0.0000000  -0.0000000
 NQMom=    0.0000000   0.0000000   0.0000000   0.0000000   0.0000000   0.0000000   0.0000000   0.0000000   0.0000000
 NMagM=    0.0000000   0.0000000   0.0000000   2.7928460   2.7928460   2.7928460   2.7928460   2.7928460   2.7928460
 AtZNuc=   6.0000000   6.0000000   8.0000000   1.0000000   1.0000000   1.0000000   1.0000000   1.0000000   1.0000000
 Leave Link  101 at Thu Dec 16 11:32:09 2021, MaxMem=   536870912 cpu:               0.8 elap:               0.2
 (Enter /opt/gaussian/g16/sse4/g16/l103.exe)

 GradGradGradGradGradGradGradGradGradGradGradGradGradGradGradGradGradGrad
 Berny optimization.
 Initialization pass.
                           ----------------------------
                           !    Initial Parameters    !
                           ! (Angstroms and Degrees)  !
 --------------------------                            --------------------------
 ! Name  Definition              Value          Derivative Info.                !
 --------------------------------------------------------------------------------
 ! R1    R(1,2)                  1.5146         estimate D2E/DX2                !
 ! R2    R(1,4)                  1.0936         estimate D2E/DX2                !
 ! R3    R(1,5)                  1.095          estimate D2E/DX2                !
 ! R4    R(1,6)                  1.0949         estimate D2E/DX2                !
 ! R5    R(2,3)                  1.4202         estimate D2E/DX2                !
 ! R6    R(2,7)                  1.0942         estimate D2E/DX2                !
 ! R7    R(2,8)                  1.0939         estimate D2E/DX2                !
 ! R8    R(3,9)                  0.9724         estimate D2E/DX2                !
 ! A1    A(2,1,4)              110.8875         estimate D2E/DX2                !
 ! A2    A(2,1,5)              110.7016         estimate D2E/DX2                !
 ! A3    A(2,1,6)              110.6003         estimate D2E/DX2                !
 ! A4    A(4,1,5)              108.7678         estimate D2E/DX2                !
 ! A5    A(4,1,6)              108.869          estimate D2E/DX2                !
 ! A6    A(5,1,6)              106.9023         estimate D2E/DX2                !
 ! A7    A(1,2,3)              109.9782         estimate D2E/DX2                !
 ! A8    A(1,2,7)              111.0233         estimate D2E/DX2                !
 ! A9    A(1,2,8)              110.4859         estimate D2E/DX2                !
 ! A10   A(3,2,7)              108.722          estimate D2E/DX2                !
 ! A11   A(3,2,8)              108.1712         estimate D2E/DX2                !
 ! A12   A(7,2,8)              108.3854         estimate D2E/DX2                !
 ! A13   A(2,3,9)              107.5458         estimate D2E/DX2                !
 ! D1    D(4,1,2,3)           -179.0862         estimate D2E/DX2                !
 ! D2    D(4,1,2,7)             60.5425         estimate D2E/DX2                !
 ! D3    D(4,1,2,8)            -59.7424         estimate D2E/DX2                !
 ! D4    D(5,1,2,3)             60.0936         estimate D2E/DX2                !
 ! D5    D(5,1,2,7)            -60.2777         estimate D2E/DX2                !
 ! D6    D(5,1,2,8)            179.4374         estimate D2E/DX2                !
 ! D7    D(6,1,2,3)            -58.2062         estimate D2E/DX2                !
 ! D8    D(6,1,2,7)           -178.5775         estimate D2E/DX2                !
 ! D9    D(6,1,2,8)             61.1376         estimate D2E/DX2                !
 ! D10   D(1,2,3,9)            -59.8749         estimate D2E/DX2                !
 ! D11   D(7,2,3,9)             61.8776         estimate D2E/DX2                !
 ! D12   D(8,2,3,9)            179.3775         estimate D2E/DX2                !
 --------------------------------------------------------------------------------
 Trust Radius=3.00D-01 FncErr=1.00D-07 GrdErr=1.00D-07 EigMax=2.50D+02 EigMin=1.00D-04
 Number of steps in this run=     43 maximum allowed number of steps=    100.
 GradGradGradGradGradGradGradGradGradGradGradGradGradGradGradGradGradGrad

 Leave Link  103 at Thu Dec 16 11:32:09 2021, MaxMem=   536870912 cpu:               0.0 elap:               0.0
 (Enter /opt/gaussian/g16/sse4/g16/l202.exe)
                          Input orientation:                          
 ---------------------------------------------------------------------
 Center     Atomic      Atomic             Coordinates (Angstroms)
 Number     Number       Type             X           Y           Z
 ---------------------------------------------------------------------
      1          6           0        1.011100    0.077080   -0.059530
      2          6           0        2.525690    0.079850   -0.066400
      3          8           0        3.005810    1.243650   -0.723650
      4          1           0        0.625160   -0.805710    0.457800
      5          1           0        0.619370    0.085560   -1.081990
      6          1           0        0.626450    0.974410    0.436200
      7          1           0        2.917510   -0.801850   -0.582510
      8          1           0        2.913160    0.081420    0.956540
      9          1           0        2.664530    1.228020   -1.634070
 ---------------------------------------------------------------------
                    Distance matrix (angstroms):
                    1          2          3          4          5
     1  C    0.000000
     2  C    1.514608   0.000000
     3  O    2.404331   1.420184   0.000000
     4  H    1.093571   2.161253   3.356068   0.000000
     5  H    1.094965   2.159980   2.676691   1.779143   0.000000
     6  H    1.094945   2.158693   2.660657   1.780252   1.759263
     7  H    2.163429   1.094206   2.052264   2.517365   2.513648
     8  H    2.156444   1.093865   2.045092   2.504134   3.068728
     9  H    2.556887   1.948117   0.972410   3.559636   2.406800
                    6          7          8          9
     6  H    0.000000
     7  H    3.072755   0.000000
     8  H    2.509428   1.774503   0.000000
     9  H    2.916180   2.300033   2.843900   0.000000
 Stoichiometry    C2H6O
 Framework group  C1[X(C2H6O)]
 Deg. of freedom    21
 Full point group                 C1      NOp   1
 Largest Abelian subgroup         C1      NOp   1
 Largest concise Abelian subgroup C1      NOp   1
                         Standard orientation:                         
 ---------------------------------------------------------------------
 Center     Atomic      Atomic             Coordinates (Angstroms)
 Number     Number       Type             X           Y           Z
 ---------------------------------------------------------------------
      1          6           0       -1.189013   -0.242578   -0.020188
      2          6           0        0.082495    0.577704    0.046466
      3          8           0        1.213414   -0.266431   -0.112846
      4          1           0       -2.070742    0.395723    0.084802
      5          1           0       -1.204425   -0.997807    0.772491
      6          1           0       -1.251755   -0.779289   -0.972506
      7          1           0        0.164518    1.097414    1.005873
      8          1           0        0.098776    1.324289   -0.752839
      9          1           0        1.195425   -0.919638    0.607278
 ---------------------------------------------------------------------
 Rotational constants (GHZ):          33.3036258           9.5408688           8.3219240
 Leave Link  202 at Thu Dec 16 11:32:09 2021, MaxMem=   536870912 cpu:               0.0 elap:               0.0
 (Enter /opt/gaussian/g16/sse4/g16/l301.exe)
 Standard basis: CC-pVDZ (5D, 7F)
 Ernie: Thresh=  0.10000D-02 Tol=  0.10000D-05 Strict=F.
 Ernie:  6 primitive shells out of 96 were deleted.
 There are    75 symmetry adapted cartesian basis functions of A   symmetry.
 There are    72 symmetry adapted basis functions of A   symmetry.
    72 basis functions,   141 primitive gaussians,    75 cartesian basis functions
    13 alpha electrons       13 beta electrons
       nuclear repulsion energy        82.0240653680 Hartrees.
 IExCor=    0 DFT=F Ex=HF Corr=None ExCW=0 ScaHFX=  1.000000
 ScaDFX=  1.000000  1.000000  1.000000  1.000000 ScalE2=  1.000000  1.000000
 IRadAn=      5 IRanWt=     -1 IRanGd=            0 ICorTp=0 IEmpDi=  4
 NAtoms=    9 NActive=    9 NUniq=    9 SFac= 1.00D+00 NAtFMM=   60 NAOKFM=F Big=F
 Integral buffers will be    131072 words long.
 Raffenetti 1 integral format.
 Two-electron integral symmetry is turned on.
 Leave Link  301 at Thu Dec 16 11:32:10 2021, MaxMem=   536870912 cpu:               0.2 elap:               0.1
 (Enter /opt/gaussian/g16/sse4/g16/l302.exe)
 NPDir=0 NMtPBC=     1 NCelOv=     1 NCel=       1 NClECP=     1 NCelD=      1
         NCelK=      1 NCelE2=     1 NClLst=     1 CellRange=     0.0.
 One-electron integrals computed using PRISM.
 One-electron integral symmetry used in STVInt
 NBasis=    72 RedAO= T EigKep=  6.42D-03  NBF=    72
 NBsUse=    72 1.00D-06 EigRej= -1.00D+00 NBFU=    72
 Leave Link  302 at Thu Dec 16 11:32:10 2021, MaxMem=   536870912 cpu:               0.5 elap:               0.1
 (Enter /opt/gaussian/g16/sse4/g16/l303.exe)
 DipDrv:  MaxL=1.
 Leave Link  303 at Thu Dec 16 11:32:10 2021, MaxMem=   536870912 cpu:               0.1 elap:               0.0
 (Enter /opt/gaussian/g16/sse4/g16/l401.exe)
 ExpMin= 1.22D-01 ExpMax= 1.17D+04 ExpMxC= 4.01D+02 IAcc=3 IRadAn=         5 AccDes= 0.00D+00
 Harris functional with IExCor=  205 and IRadAn=       5 diagonalized for initial guess.
 HarFok:  IExCor=  205 AccDes= 0.00D+00 IRadAn=         5 IDoV= 1 UseB2=F ITyADJ=14
 ICtDFT=  3500011 ScaDFX=  1.000000  1.000000  1.000000  1.000000
 FoFCou: FMM=F IPFlag=           0 FMFlag=      100000 FMFlg1=           0
         NFxFlg=           0 DoJE=T BraDBF=F KetDBF=T FulRan=T
         wScrn=  0.000000 ICntrl=       500 IOpCl=  0 I1Cent=   200000004 NGrid=           0
         NMat0=    1 NMatS0=      1 NMatT0=    0 NMatD0=    1 NMtDS0=    0 NMtDT0=    0
 Petite list used in FoFCou.
 Harris En= -154.356717510674    
 JPrj=0 DoOrth=F DoCkMO=F.
 Leave Link  401 at Thu Dec 16 11:32:11 2021, MaxMem=   536870912 cpu:               1.7 elap:               0.5
 (Enter /opt/gaussian/g16/sse4/g16/l502.exe)
 Keep R1 ints in memory in canonical form, NReq=4336610.
 FoFCou: FMM=F IPFlag=           0 FMFlag=           0 FMFlg1=           0
         NFxFlg=           0 DoJE=F BraDBF=F KetDBF=F FulRan=T
         wScrn=  0.000000 ICntrl=       600 IOpCl=  0 I1Cent=           0 NGrid=           0
         NMat0=    1 NMatS0=   2628 NMatT0=    0 NMatD0=    1 NMtDS0=    0 NMtDT0=    0
 Symmetry not used in FoFCou.
 Two-electron integral symmetry not used.
 Closed shell SCF:
 Using DIIS extrapolation, IDIIS=  1040.
 NGot=   536870912 LenX=   533403697 LenY=   533397631
 Requested convergence on RMS density matrix=1.00D-08 within 128 cycles.
 Requested convergence on MAX density matrix=1.00D-06.
 Requested convergence on             energy=1.00D-06.
 No special actions if energy rises.

 Cycle   1  Pass 1  IDiag  1:
 E= -153.917564715805    
 DIIS: error= 3.43D-02 at cycle   1 NSaved=   1.
 NSaved= 1 IEnMin= 1 EnMin= -153.917564715805     IErMin= 1 ErrMin= 3.43D-02
 ErrMax= 3.43D-02  0.00D+00 EMaxC= 1.00D-01 BMatC= 2.04D-01 BMatP= 2.04D-01
 IDIUse=3 WtCom= 6.57D-01 WtEn= 3.43D-01
 Coeff-Com:  0.100D+01
 Coeff-En:   0.100D+01
 Coeff:      0.100D+01
 Gap=     0.562 Goal=   None    Shift=    0.000
 GapD=    0.562 DampG=2.000 DampE=0.500 DampFc=1.0000 IDamp=-1.
 RMSDP=6.21D-03 MaxDP=1.17D-01              OVMax= 1.22D-01

 Cycle   2  Pass 1  IDiag  1:
 E= -154.059998277528     Delta-E=       -0.142433561723 Rises=F Damp=F
 DIIS: error= 1.50D-02 at cycle   2 NSaved=   2.
 NSaved= 2 IEnMin= 2 EnMin= -154.059998277528     IErMin= 2 ErrMin= 1.50D-02
 ErrMax= 1.50D-02  0.00D+00 EMaxC= 1.00D-01 BMatC= 3.63D-02 BMatP= 2.04D-01
 IDIUse=3 WtCom= 8.50D-01 WtEn= 1.50D-01
 Coeff-Com:  0.264D+00 0.736D+00
 Coeff-En:   0.000D+00 0.100D+01
 Coeff:      0.225D+00 0.775D+00
 Gap=     0.632 Goal=   None    Shift=    0.000
 RMSDP=2.23D-03 MaxDP=3.21D-02 DE=-1.42D-01 OVMax= 3.83D-02

 Cycle   3  Pass 1  IDiag  1:
 E= -154.089893139681     Delta-E=       -0.029894862153 Rises=F Damp=F
 DIIS: error= 2.46D-03 at cycle   3 NSaved=   3.
 NSaved= 3 IEnMin= 3 EnMin= -154.089893139681     IErMin= 3 ErrMin= 2.46D-03
 ErrMax= 2.46D-03  0.00D+00 EMaxC= 1.00D-01 BMatC= 1.12D-03 BMatP= 3.63D-02
 IDIUse=3 WtCom= 9.75D-01 WtEn= 2.46D-02
 Coeff-Com: -0.206D-01 0.974D-01 0.923D+00
 Coeff-En:   0.000D+00 0.000D+00 0.100D+01
 Coeff:     -0.200D-01 0.950D-01 0.925D+00
 Gap=     0.611 Goal=   None    Shift=    0.000
 RMSDP=3.38D-04 MaxDP=8.06D-03 DE=-2.99D-02 OVMax= 7.49D-03

 Cycle   4  Pass 1  IDiag  1:
 E= -154.090878300730     Delta-E=       -0.000985161049 Rises=F Damp=F
 DIIS: error= 6.09D-04 at cycle   4 NSaved=   4.
 NSaved= 4 IEnMin= 4 EnMin= -154.090878300730     IErMin= 4 ErrMin= 6.09D-04
 ErrMax= 6.09D-04  0.00D+00 EMaxC= 1.00D-01 BMatC= 6.48D-05 BMatP= 1.12D-03
 IDIUse=3 WtCom= 9.94D-01 WtEn= 6.09D-03
 Coeff-Com: -0.104D-01-0.137D-02 0.197D+00 0.815D+00
 Coeff-En:   0.000D+00 0.000D+00 0.000D+00 0.100D+01
 Coeff:     -0.103D-01-0.137D-02 0.196D+00 0.816D+00
 Gap=     0.614 Goal=   None    Shift=    0.000
 RMSDP=1.07D-04 MaxDP=1.82D-03 DE=-9.85D-04 OVMax= 2.14D-03

 Cycle   5  Pass 1  IDiag  1:
 E= -154.090943629829     Delta-E=       -0.000065329099 Rises=F Damp=F
 DIIS: error= 3.26D-04 at cycle   5 NSaved=   5.
 NSaved= 5 IEnMin= 5 EnMin= -154.090943629829     IErMin= 5 ErrMin= 3.26D-04
 ErrMax= 3.26D-04  0.00D+00 EMaxC= 1.00D-01 BMatC= 5.57D-06 BMatP= 6.48D-05
 IDIUse=3 WtCom= 9.97D-01 WtEn= 3.26D-03
 Coeff-Com:  0.151D-02-0.123D-01-0.929D-01 0.615D-01 0.104D+01
 Coeff-En:   0.000D+00 0.000D+00 0.000D+00 0.000D+00 0.100D+01
 Coeff:      0.151D-02-0.122D-01-0.926D-01 0.613D-01 0.104D+01
 Gap=     0.614 Goal=   None    Shift=    0.000
 RMSDP=4.42D-05 MaxDP=4.22D-04 DE=-6.53D-05 OVMax= 7.61D-04

 Cycle   6  Pass 1  IDiag  1:
 E= -154.090952119748     Delta-E=       -0.000008489919 Rises=F Damp=F
 DIIS: error= 2.97D-05 at cycle   6 NSaved=   6.
 NSaved= 6 IEnMin= 6 EnMin= -154.090952119748     IErMin= 6 ErrMin= 2.97D-05
 ErrMax= 2.97D-05  0.00D+00 EMaxC= 1.00D-01 BMatC= 1.46D-07 BMatP= 5.57D-06
 IDIUse=1 WtCom= 1.00D+00 WtEn= 0.00D+00
 Coeff-Com:  0.517D-03-0.648D-03-0.110D-01-0.366D-01 0.180D-01 0.103D+01
 Coeff:      0.517D-03-0.648D-03-0.110D-01-0.366D-01 0.180D-01 0.103D+01
 Gap=     0.614 Goal=   None    Shift=    0.000
 RMSDP=1.02D-05 MaxDP=1.04D-04 DE=-8.49D-06 OVMax= 1.87D-04

 Cycle   7  Pass 1  IDiag  1:
 E= -154.090952423145     Delta-E=       -0.000000303397 Rises=F Damp=F
 DIIS: error= 9.30D-06 at cycle   7 NSaved=   7.
 NSaved= 7 IEnMin= 7 EnMin= -154.090952423145     IErMin= 7 ErrMin= 9.30D-06
 ErrMax= 9.30D-06  0.00D+00 EMaxC= 1.00D-01 BMatC= 1.04D-08 BMatP= 1.46D-07
 IDIUse=1 WtCom= 1.00D+00 WtEn= 0.00D+00
 Coeff-Com: -0.795D-04 0.484D-03 0.452D-02-0.409D-02-0.458D-01-0.105D-01
 Coeff-Com:  0.106D+01
 Coeff:     -0.795D-04 0.484D-03 0.452D-02-0.409D-02-0.458D-01-0.105D-01
 Coeff:      0.106D+01
 Gap=     0.614 Goal=   None    Shift=    0.000
 RMSDP=2.78D-06 MaxDP=3.16D-05 DE=-3.03D-07 OVMax= 6.05D-05

 Cycle   8  Pass 1  IDiag  1:
 E= -154.090952445871     Delta-E=       -0.000000022726 Rises=F Damp=F
 DIIS: error= 3.09D-06 at cycle   8 NSaved=   8.
 NSaved= 8 IEnMin= 8 EnMin= -154.090952445871     IErMin= 8 ErrMin= 3.09D-06
 ErrMax= 3.09D-06  0.00D+00 EMaxC= 1.00D-01 BMatC= 1.15D-09 BMatP= 1.04D-08
 IDIUse=1 WtCom= 1.00D+00 WtEn= 0.00D+00
 Coeff-Com: -0.561D-04 0.996D-04 0.147D-02 0.321D-02-0.382D-02-0.106D+00
 Coeff-Com:  0.355D-01 0.107D+01
 Coeff:     -0.561D-04 0.996D-04 0.147D-02 0.321D-02-0.382D-02-0.106D+00
 Coeff:      0.355D-01 0.107D+01
 Gap=     0.614 Goal=   None    Shift=    0.000
 RMSDP=9.76D-07 MaxDP=1.39D-05 DE=-2.27D-08 OVMax= 2.38D-05

 Cycle   9  Pass 1  IDiag  1:
 E= -154.090952448675     Delta-E=       -0.000000002804 Rises=F Damp=F
 DIIS: error= 7.66D-07 at cycle   9 NSaved=   9.
 NSaved= 9 IEnMin= 9 EnMin= -154.090952448675     IErMin= 9 ErrMin= 7.66D-07
 ErrMax= 7.66D-07  0.00D+00 EMaxC= 1.00D-01 BMatC= 7.27D-11 BMatP= 1.15D-09
 IDIUse=1 WtCom= 1.00D+00 WtEn= 0.00D+00
 Coeff-Com:  0.111D-04-0.434D-04-0.497D-03-0.231D-03 0.355D-02 0.201D-01
 Coeff-Com: -0.890D-01-0.165D+00 0.123D+01
 Coeff:      0.111D-04-0.434D-04-0.497D-03-0.231D-03 0.355D-02 0.201D-01
 Coeff:     -0.890D-01-0.165D+00 0.123D+01
 Gap=     0.614 Goal=   None    Shift=    0.000
 RMSDP=2.85D-07 MaxDP=4.69D-06 DE=-2.80D-09 OVMax= 6.03D-06

 Cycle  10  Pass 1  IDiag  1:
 E= -154.090952448879     Delta-E=       -0.000000000204 Rises=F Damp=F
 DIIS: error= 1.70D-07 at cycle  10 NSaved=  10.
 NSaved=10 IEnMin=10 EnMin= -154.090952448879     IErMin=10 ErrMin= 1.70D-07
 ErrMax= 1.70D-07  0.00D+00 EMaxC= 1.00D-01 BMatC= 2.77D-12 BMatP= 7.27D-11
 IDIUse=1 WtCom= 1.00D+00 WtEn= 0.00D+00
 Coeff-Com:  0.151D-05-0.278D-07-0.223D-04-0.167D-03-0.235D-03 0.429D-02
 Coeff-Com:  0.612D-02-0.397D-01-0.116D+00 0.115D+01
 Coeff:      0.151D-05-0.278D-07-0.223D-04-0.167D-03-0.235D-03 0.429D-02
 Coeff:      0.612D-02-0.397D-01-0.116D+00 0.115D+01
 Gap=     0.614 Goal=   None    Shift=    0.000
 RMSDP=5.21D-08 MaxDP=9.16D-07 DE=-2.04D-10 OVMax= 1.34D-06

 Cycle  11  Pass 1  IDiag  1:
 E= -154.090952448887     Delta-E=       -0.000000000008 Rises=F Damp=F
 DIIS: error= 4.43D-08 at cycle  11 NSaved=  11.
 NSaved=11 IEnMin=11 EnMin= -154.090952448887     IErMin=11 ErrMin= 4.43D-08
 ErrMax= 4.43D-08  0.00D+00 EMaxC= 1.00D-01 BMatC= 1.88D-13 BMatP= 2.77D-12
 IDIUse=1 WtCom= 1.00D+00 WtEn= 0.00D+00
 Coeff-Com: -0.906D-06 0.192D-05 0.277D-04 0.654D-04-0.786D-04-0.225D-02
 Coeff-Com:  0.161D-02 0.197D-01-0.113D-01-0.405D+00 0.140D+01
 Coeff:     -0.906D-06 0.192D-05 0.277D-04 0.654D-04-0.786D-04-0.225D-02
 Coeff:      0.161D-02 0.197D-01-0.113D-01-0.405D+00 0.140D+01
 Gap=     0.614 Goal=   None    Shift=    0.000
 RMSDP=1.51D-08 MaxDP=2.54D-07 DE=-7.73D-12 OVMax= 5.17D-07

 Cycle  12  Pass 1  IDiag  1:
 E= -154.090952448887     Delta-E=       -0.000000000000 Rises=F Damp=F
 DIIS: error= 8.53D-09 at cycle  12 NSaved=  12.
 NSaved=12 IEnMin=12 EnMin= -154.090952448887     IErMin=12 ErrMin= 8.53D-09
 ErrMax= 8.53D-09  0.00D+00 EMaxC= 1.00D-01 BMatC= 8.89D-15 BMatP= 1.88D-13
 IDIUse=1 WtCom= 1.00D+00 WtEn= 0.00D+00
 Coeff-Com:  0.187D-06-0.574D-06-0.687D-05-0.910D-05 0.320D-04 0.437D-03
 Coeff-Com: -0.783D-03-0.367D-02 0.109D-01 0.443D-01-0.342D+00 0.129D+01
 Coeff:      0.187D-06-0.574D-06-0.687D-05-0.910D-05 0.320D-04 0.437D-03
 Coeff:     -0.783D-03-0.367D-02 0.109D-01 0.443D-01-0.342D+00 0.129D+01
 Gap=     0.614 Goal=   None    Shift=    0.000
 RMSDP=3.61D-09 MaxDP=5.37D-08 DE=-1.71D-13 OVMax= 1.27D-07

 SCF Done:  E(RHF) =  -154.090952449     A.U. after   12 cycles
            NFock= 12  Conv=0.36D-08     -V/T= 2.0009
 KE= 1.539466881621D+02 PE=-5.259267663315D+02 EE= 1.358650603526D+02
 Leave Link  502 at Thu Dec 16 11:32:12 2021, MaxMem=   536870912 cpu:               1.6 elap:               0.5
 (Enter /opt/gaussian/g16/sse4/g16/l601.exe)
 Copying SCF densities to generalized density rwf, IOpCl= 0 IROHF=0.

 **********************************************************************

            Population analysis using the SCF density.

 **********************************************************************

 Orbital symmetries:
       Occupied  (A) (A) (A) (A) (A) (A) (A) (A) (A) (A) (A) (A)
                 (A)
       Virtual   (A) (A) (A) (A) (A) (A) (A) (A) (A) (A) (A) (A)
                 (A) (A) (A) (A) (A) (A) (A) (A) (A) (A) (A) (A)
                 (A) (A) (A) (A) (A) (A) (A) (A) (A) (A) (A) (A)
                 (A) (A) (A) (A) (A) (A) (A) (A) (A) (A) (A) (A)
                 (A) (A) (A) (A) (A) (A) (A) (A) (A) (A) (A)
 The electronic state is 1-A.
 Alpha  occ. eigenvalues --  -20.54719 -11.27604 -11.22386  -1.34952  -1.01003
 Alpha  occ. eigenvalues --   -0.84361  -0.67884  -0.62075  -0.60261  -0.53879
 Alpha  occ. eigenvalues --   -0.52300  -0.47560  -0.43515
 Alpha virt. eigenvalues --    0.17864   0.21715   0.23380   0.25532   0.26685
 Alpha virt. eigenvalues --    0.28647   0.38145   0.40070   0.59603   0.61503
 Alpha virt. eigenvalues --    0.66562   0.72939   0.75018   0.81035   0.85028
 Alpha virt. eigenvalues --    0.88181   0.88686   0.89711   0.91038   0.92955
 Alpha virt. eigenvalues --    1.11923   1.14071   1.16734   1.27850   1.32821
 Alpha virt. eigenvalues --    1.38222   1.46034   1.50817   1.57005   1.65060
 Alpha virt. eigenvalues --    1.68669   1.74372   1.85357   1.87558   1.89784
 Alpha virt. eigenvalues --    1.93158   1.94235   1.95386   1.97453   2.04664
 Alpha virt. eigenvalues --    2.09125   2.15711   2.26292   2.27617   2.34730
 Alpha virt. eigenvalues --    2.42094   2.51036   2.52311   2.54270   2.75138
 Alpha virt. eigenvalues --    2.76842   2.83079   2.88208   2.91636   3.31609
 Alpha virt. eigenvalues --    3.40013   3.45643   3.63045   4.09470
          Condensed to atoms (all electrons):
               1          2          3          4          5          6
     1  C    4.572130   0.437323  -0.046821   0.389875   0.402435   0.402944
     2  C    0.437323   4.393438   0.305585  -0.024081  -0.028293  -0.026841
     3  O   -0.046821   0.305585   7.824371   0.004133  -0.000603   0.003716
     4  H    0.389875  -0.024081   0.004133   0.648271  -0.022219  -0.020325
     5  H    0.402435  -0.028293  -0.000603  -0.022219   0.657248  -0.030791
     6  H    0.402944  -0.026841   0.003716  -0.020325  -0.030791   0.629641
     7  H   -0.039584   0.410018  -0.031404  -0.000308  -0.009247   0.008546
     8  H   -0.031895   0.407971  -0.021221  -0.002281   0.007432  -0.008799
     9  H   -0.004139  -0.047821   0.358203  -0.000042   0.005164  -0.001184
               7          8          9
     1  C   -0.039584  -0.031895  -0.004139
     2  C    0.410018   0.407971  -0.047821
     3  O   -0.031404  -0.021221   0.358203
     4  H   -0.000308  -0.002281  -0.000042
     5  H   -0.009247   0.007432   0.005164
     6  H    0.008546  -0.008799  -0.001184
     7  H    0.692893  -0.039026  -0.006450
     8  H   -0.039026   0.641838   0.007645
     9  H   -0.006450   0.007645   0.524933
 Mulliken charges:
               1
     1  C   -0.082270
     2  C    0.172700
     3  O   -0.395959
     4  H    0.026977
     5  H    0.018873
     6  H    0.043092
     7  H    0.014561
     8  H    0.038335
     9  H    0.163690
 Sum of Mulliken charges =  -0.00000
 Mulliken charges with hydrogens summed into heavy atoms:
               1
     1  C    0.006673
     2  C    0.225596
     3  O   -0.232269
 Electronic spatial extent (au):  <R**2>=            191.5950
 Charge=             -0.0000 electrons
 Dipole moment (field-independent basis, Debye):
    X=             -1.2718    Y=             -0.1209    Z=              1.2166  Tot=              1.7642
 Quadrupole moment (field-independent basis, Debye-Ang):
   XX=            -22.5585   YY=            -18.3333   ZZ=            -19.0395
   XY=             -0.9471   XZ=              1.8394   YZ=             -1.4923
 Traceless Quadrupole moment (field-independent basis, Debye-Ang):
   XX=             -2.5814   YY=              1.6438   ZZ=              0.9375
   XY=             -0.9471   XZ=              1.8394   YZ=             -1.4923
 Octapole moment (field-independent basis, Debye-Ang**2):
  XXX=              2.1852  YYY=             -2.3507  ZZZ=              0.3620  XYY=              3.4090
  XXY=             -0.9579  XXZ=              2.1664  XZZ=              2.6355  YZZ=             -0.9711
  YYZ=              0.9252  XYZ=             -1.7623
 Hexadecapole moment (field-independent basis, Debye-Ang**3):
 XXXX=           -157.2172 YYYY=            -55.7590 ZZZZ=            -32.9880 XXXY=             -6.3308
 XXXZ=              2.8115 YYYX=             -4.3675 YYYZ=             -2.6283 ZZZX=              1.5212
 ZZZY=             -1.0351 XXYY=            -32.4401 XXZZ=            -30.6222 YYZZ=            -13.1728
 XXYZ=             -1.9548 YYXZ=              1.4406 ZZXY=             -0.8015
 N-N= 8.202406536796D+01 E-N=-5.259267663067D+02  KE= 1.539466881621D+02
 No NMR shielding tensors so no spin-rotation constants.
 Leave Link  601 at Thu Dec 16 11:32:12 2021, MaxMem=   536870912 cpu:               0.7 elap:               0.2
 (Enter /opt/gaussian/g16/sse4/g16/l701.exe)
 ... and contract with generalized density number  0.
 Compute integral first derivatives.
 Leave Link  701 at Thu Dec 16 11:32:13 2021, MaxMem=   536870912 cpu:               0.5 elap:               0.2
 (Enter /opt/gaussian/g16/sse4/g16/l702.exe)
 L702 exits ... SP integral derivatives will be done elsewhere.
 Leave Link  702 at Thu Dec 16 11:32:14 2021, MaxMem=   536870912 cpu:               0.1 elap:               0.0
 (Enter /opt/gaussian/g16/sse4/g16/l703.exe)
 Integral derivatives from FoFJK, PRISM(SPDF).
 Compute integral first derivatives, UseDBF=F ICtDFT=           0.
 Calling FoFJK, ICntrl=      2127 FMM=F ISym2X=0 I1Cent= 0 IOpClX= 0 NMat=1 NMatS=1 NMatT=0.
 FoFJK:  IHMeth= 1 ICntrl=    2127 DoSepK=F KAlg= 0 I1Cent=           0 FoldK=F
 IRaf=         0 NMat=       1 IRICut=       1 DoRegI=T DoRafI=F ISym2E= 0 IDoP0=0 IntGTp=1.
 FoFCou: FMM=F IPFlag=           0 FMFlag=      100000 FMFlg1=         800
         NFxFlg=           0 DoJE=F BraDBF=F KetDBF=F FulRan=T
         wScrn=  0.000000 ICntrl=      2127 IOpCl=  0 I1Cent=           0 NGrid=           0
         NMat0=    1 NMatS0=      1 NMatT0=    0 NMatD0=    1 NMtDS0=    0 NMtDT0=    0
 Symmetry not used in FoFCou.
 Leave Link  703 at Thu Dec 16 11:32:15 2021, MaxMem=   536870912 cpu:               1.5 elap:               0.5
 (Enter /opt/gaussian/g16/sse4/g16/l716.exe)
 Dipole        =-5.00374647D-01-4.75840250D-02 4.78660909D-01
 ***** Axes restored to original set *****
 -------------------------------------------------------------------
 Center     Atomic                   Forces (Hartrees/Bohr)
 Number     Number              X              Y              Z
 -------------------------------------------------------------------
      1        6          -0.003402075   -0.000947232    0.003268019
      2        6           0.000379215    0.011861891   -0.011801280
      3        8          -0.008734913   -0.007244984   -0.016910304
      4        1          -0.001537317    0.000492201   -0.001189812
      5        1           0.000021286   -0.002549469    0.000397477
      6        1           0.001853730   -0.002222548    0.000485857
      7        1          -0.000888979   -0.003245970    0.003491397
      8        1           0.001508257    0.002756218   -0.004340006
      9        1           0.010800797    0.001099893    0.026598652
 -------------------------------------------------------------------
 Cartesian Forces:  Max     0.026598652 RMS     0.007733734
 Leave Link  716 at Thu Dec 16 11:32:16 2021, MaxMem=   536870912 cpu:               0.1 elap:               0.0
 (Enter /opt/gaussian/g16/sse4/g16/l103.exe)

 GradGradGradGradGradGradGradGradGradGradGradGradGradGradGradGradGradGrad
 Berny optimization.
 FormGI is forming the generalized inverse of G from B-inverse, IUseBI=4.
 Internal  Forces:  Max     0.028711384 RMS     0.006000156
 Search for a local minimum.
 Step number   1 out of a maximum of   43
 All quantities printed in internal units (Hartrees-Bohrs-Radians)
 RMS Force = .60002D-02 SwitMx=.10000D-02 MixMth= 1
 Mixed Optimization -- RFO/linear search
 Second derivative matrix not updated -- first step.
 ITU=  0
     Eigenvalues ---    0.00573   0.01425   0.05213   0.05649   0.05770
     Eigenvalues ---    0.05827   0.11505   0.13798   0.16000   0.16000
     Eigenvalues ---    0.16000   0.16000   0.22019   0.30892   0.34245
     Eigenvalues ---    0.34247   0.34331   0.34370   0.34403   0.42433
     Eigenvalues ---    0.52888
 RFO step:  Lambda=-3.78212029D-03 EMin= 5.72710188D-03
 Linear search not attempted -- first point.
 Iteration  1 RMS(Cart)=  0.04257505 RMS(Int)=  0.00100463
 Iteration  2 RMS(Cart)=  0.00121587 RMS(Int)=  0.00051306
 Iteration  3 RMS(Cart)=  0.00000103 RMS(Int)=  0.00051306
 Iteration  4 RMS(Cart)=  0.00000000 RMS(Int)=  0.00051306
 ITry= 1 IFail=0 DXMaxC= 1.29D-01 DCOld= 1.00D+10 DXMaxT= 3.00D-01 DXLimC= 3.00D+00 Rises=F
 Variable       Old X    -DE/DX   Delta X   Delta X   Delta X     New X
                                 (Linear)    (Quad)   (Total)
    R1        2.86219   0.00309   0.00000   0.00987   0.00987   2.87207
    R2        2.06655  -0.00042   0.00000  -0.00120  -0.00120   2.06535
    R3        2.06918  -0.00040   0.00000  -0.00115  -0.00115   2.06803
    R4        2.06915  -0.00225   0.00000  -0.00651  -0.00651   2.06264
    R5        2.68376  -0.00882   0.00000  -0.02060  -0.02060   2.66315
    R6        2.06775   0.00065   0.00000   0.00187   0.00187   2.06962
    R7        2.06711  -0.00352   0.00000  -0.01013  -0.01013   2.05697
    R8        1.83759  -0.02871   0.00000  -0.05390  -0.05390   1.78369
    A1        1.93535   0.00240   0.00000   0.01116   0.01117   1.94653
    A2        1.93211   0.00010   0.00000   0.00137   0.00138   1.93349
    A3        1.93034  -0.00176   0.00000  -0.00804  -0.00802   1.92232
    A4        1.89836  -0.00196   0.00000  -0.01703  -0.01702   1.88134
    A5        1.90012  -0.00053   0.00000  -0.00477  -0.00474   1.89538
    A6        1.86580   0.00169   0.00000   0.01715   0.01716   1.88295
    A7        1.91948   0.01060   0.00000   0.05319   0.05246   1.97194
    A8        1.93772  -0.00390   0.00000  -0.00691  -0.00856   1.92916
    A9        1.92834   0.00022   0.00000  -0.00647  -0.00599   1.92236
   A10        1.89756   0.00061   0.00000   0.04023   0.03913   1.93669
   A11        1.88794  -0.00777   0.00000  -0.06174  -0.06119   1.82676
   A12        1.89168  -0.00002   0.00000  -0.02007  -0.01988   1.87180
   A13        1.87703   0.00173   0.00000   0.01057   0.01057   1.88760
    D1       -3.12564   0.00254   0.00000   0.04535   0.04550  -3.08014
    D2        1.05667  -0.00269   0.00000  -0.03555  -0.03562   1.02104
    D3       -1.04270  -0.00023   0.00000  -0.00148  -0.00156  -1.04426
    D4        1.04883   0.00334   0.00000   0.05846   0.05862   1.10745
    D5       -1.05205  -0.00189   0.00000  -0.02243  -0.02251  -1.07456
    D6        3.13177   0.00057   0.00000   0.01163   0.01156  -3.13986
    D7       -1.01589   0.00229   0.00000   0.04139   0.04154  -0.97435
    D8       -3.11677  -0.00294   0.00000  -0.03951  -0.03959   3.12683
    D9        1.06705  -0.00048   0.00000  -0.00544  -0.00552   1.06153
   D10       -1.04501  -0.00033   0.00000  -0.03289  -0.03427  -1.07929
   D11        1.07997   0.00185   0.00000   0.01739   0.01866   1.09863
   D12        3.13073  -0.00214   0.00000  -0.01863  -0.01852   3.11221
         Item               Value     Threshold  Converged?
 Maximum Force            0.028711     0.000450     NO 
 RMS     Force            0.006000     0.000300     NO 
 Maximum Displacement     0.129289     0.001800     NO 
 RMS     Displacement     0.042005     0.001200     NO 
 Predicted change in Energy=-1.957816D-03
 Lowest energy point so far.  Saving SCF results.
 GradGradGradGradGradGradGradGradGradGradGradGradGradGradGradGradGradGrad

 Leave Link  103 at Thu Dec 16 11:32:16 2021, MaxMem=   536870912 cpu:               0.0 elap:               0.0
 (Enter /opt/gaussian/g16/sse4/g16/l202.exe)
                          Input orientation:                          
 ---------------------------------------------------------------------
 Center     Atomic      Atomic             Coordinates (Angstroms)
 Number     Number       Type             X           Y           Z
 ---------------------------------------------------------------------
      1          6           0        0.995085    0.068115   -0.057214
      2          6           0        2.514223    0.089062   -0.098080
      3          8           0        3.032248    1.246086   -0.713725
      4          1           0        0.620341   -0.807510    0.478843
      5          1           0        0.579746    0.043612   -1.069394
      6          1           0        0.620006    0.965922    0.437392
      7          1           0        2.898055   -0.816450   -0.579930
      8          1           0        2.916131    0.111582    0.913258
      9          1           0        2.732947    1.262010   -1.608759
 ---------------------------------------------------------------------
                    Distance matrix (angstroms):
                    1          2          3          4          5
     1  C    0.000000
     2  C    1.519833   0.000000
     3  O    2.443084   1.409281   0.000000
     4  H    1.092936   2.173355   3.384785   0.000000
     5  H    1.094356   2.165115   2.754489   1.767228   0.000000
     6  H    1.091502   2.154919   2.687466   1.773916   1.767111
     7  H    2.162633   1.095198   2.071223   2.511784   2.520682
     8  H    2.152701   1.088504   1.986871   2.510796   3.065000
     9  H    2.617794   1.925045   0.943886   3.619959   2.532130
                    6          7          8          9
     6  H    0.000000
     7  H    3.066154   0.000000
     8  H    2.495703   1.758175   0.000000
     9  H    2.956167   2.325026   2.778059   0.000000
 Stoichiometry    C2H6O
 Framework group  C1[X(C2H6O)]
 Deg. of freedom    21
 Full point group                 C1      NOp   1
 RotChk:  IX=0 Diff= 4.90D-02
 Largest Abelian subgroup         C1      NOp   1
 Largest concise Abelian subgroup C1      NOp   1
                         Standard orientation:                         
 ---------------------------------------------------------------------
 Center     Atomic      Atomic             Coordinates (Angstroms)
 Number     Number       Type             X           Y           Z
 ---------------------------------------------------------------------
      1          6           0       -1.211693   -0.234384   -0.019881
      2          6           0        0.087827    0.550976    0.046059
      3          8           0        1.229724   -0.260797   -0.106154
      4          1           0       -2.081824    0.424368    0.038644
      5          1           0       -1.276398   -0.948141    0.807149
      6          1           0       -1.263564   -0.797481   -0.953481
      7          1           0        0.139829    1.130394    0.973975
      8          1           0        0.140576    1.258405   -0.779534
      9          1           0        1.246783   -0.880716    0.605415
 ---------------------------------------------------------------------
 Rotational constants (GHZ):          34.9174513           9.2527532           8.1857847
 Leave Link  202 at Thu Dec 16 11:32:16 2021, MaxMem=   536870912 cpu:               0.0 elap:               0.0
 (Enter /opt/gaussian/g16/sse4/g16/l301.exe)
 Standard basis: CC-pVDZ (5D, 7F)
 Ernie: Thresh=  0.10000D-02 Tol=  0.10000D-05 Strict=F.
 Ernie:  6 primitive shells out of 96 were deleted.
 There are    75 symmetry adapted cartesian basis functions of A   symmetry.
 There are    72 symmetry adapted basis functions of A   symmetry.
    72 basis functions,   141 primitive gaussians,    75 cartesian basis functions
    13 alpha electrons       13 beta electrons
       nuclear repulsion energy        82.0541732049 Hartrees.
 IExCor=    0 DFT=F Ex=HF Corr=None ExCW=0 ScaHFX=  1.000000
 ScaDFX=  1.000000  1.000000  1.000000  1.000000 ScalE2=  1.000000  1.000000
 IRadAn=      5 IRanWt=     -1 IRanGd=            0 ICorTp=0 IEmpDi=  4
 NAtoms=    9 NActive=    9 NUniq=    9 SFac= 1.00D+00 NAtFMM=   60 NAOKFM=F Big=F
 Integral buffers will be    131072 words long.
 Raffenetti 1 integral format.
 Two-electron integral symmetry is turned on.
 Leave Link  301 at Thu Dec 16 11:32:16 2021, MaxMem=   536870912 cpu:               0.2 elap:               0.0
 (Enter /opt/gaussian/g16/sse4/g16/l302.exe)
 NPDir=0 NMtPBC=     1 NCelOv=     1 NCel=       1 NClECP=     1 NCelD=      1
         NCelK=      1 NCelE2=     1 NClLst=     1 CellRange=     0.0.
 One-electron integrals computed using PRISM.
 One-electron integral symmetry used in STVInt
 NBasis=    72 RedAO= T EigKep=  6.43D-03  NBF=    72
 NBsUse=    72 1.00D-06 EigRej= -1.00D+00 NBFU=    72
 Leave Link  302 at Thu Dec 16 11:32:16 2021, MaxMem=   536870912 cpu:               0.5 elap:               0.1
 (Enter /opt/gaussian/g16/sse4/g16/l303.exe)
 DipDrv:  MaxL=1.
 Leave Link  303 at Thu Dec 16 11:32:16 2021, MaxMem=   536870912 cpu:               0.1 elap:               0.0
 (Enter /opt/gaussian/g16/sse4/g16/l401.exe)
 Initial guess from the checkpoint file:  "HF_Ethanol_gaus.chk"
 B after Tr=     0.000000    0.000000   -0.000000
         Rot=    0.999913    0.012807    0.002459    0.001880 Ang=   1.51 deg.
 Guess basis will be translated and rotated to current coordinates.
 JPrj=2 DoOrth=T DoCkMO=T.
 Generating alternative initial guess.
 ExpMin= 1.22D-01 ExpMax= 1.17D+04 ExpMxC= 4.01D+02 IAcc=2 IRadAn=         4 AccDes= 0.00D+00
 Harris functional with IExCor=  205 and IRadAn=       4 diagonalized for initial guess.
 HarFok:  IExCor=  205 AccDes= 0.00D+00 IRadAn=         4 IDoV= 1 UseB2=F ITyADJ=14
 ICtDFT=  3500011 ScaDFX=  1.000000  1.000000  1.000000  1.000000
 FoFCou: FMM=F IPFlag=           0 FMFlag=      100000 FMFlg1=           0
         NFxFlg=           0 DoJE=T BraDBF=F KetDBF=T FulRan=T
         wScrn=  0.000000 ICntrl=       500 IOpCl=  0 I1Cent=   200000004 NGrid=           0
         NMat0=    1 NMatS0=      1 NMatT0=    0 NMatD0=    1 NMtDS0=    0 NMtDT0=    0
 Petite list used in FoFCou.
 Harris En= -154.357582696151    
 Leave Link  401 at Thu Dec 16 11:32:17 2021, MaxMem=   536870912 cpu:               1.3 elap:               0.4
 (Enter /opt/gaussian/g16/sse4/g16/l502.exe)
 Keep R1 ints in memory in canonical form, NReq=4336527.
 FoFCou: FMM=F IPFlag=           0 FMFlag=           0 FMFlg1=           0
         NFxFlg=           0 DoJE=F BraDBF=F KetDBF=F FulRan=T
         wScrn=  0.000000 ICntrl=       600 IOpCl=  0 I1Cent=           0 NGrid=           0
         NMat0=    1 NMatS0=   2628 NMatT0=    0 NMatD0=    1 NMtDS0=    0 NMtDT0=    0
 Symmetry not used in FoFCou.
 Two-electron integral symmetry not used.
 Closed shell SCF:
 Using DIIS extrapolation, IDIIS=  1040.
 NGot=   536870912 LenX=   533403697 LenY=   533397631
 Requested convergence on RMS density matrix=1.00D-08 within 128 cycles.
 Requested convergence on MAX density matrix=1.00D-06.
 Requested convergence on             energy=1.00D-06.
 No special actions if energy rises.

 Cycle   1  Pass 1  IDiag  1:
 E= -154.091059155346    
 DIIS: error= 2.41D-03 at cycle   1 NSaved=   1.
 NSaved= 1 IEnMin= 1 EnMin= -154.091059155346     IErMin= 1 ErrMin= 2.41D-03
 ErrMax= 2.41D-03  0.00D+00 EMaxC= 1.00D-01 BMatC= 1.11D-03 BMatP= 1.11D-03
 IDIUse=3 WtCom= 9.76D-01 WtEn= 2.41D-02
 Coeff-Com:  0.100D+01
 Coeff-En:   0.100D+01
 Coeff:      0.100D+01
 Gap=     0.980 Goal=   None    Shift=    0.000
 GapD=    0.980 DampG=2.000 DampE=1.000 DampFc=2.0000 IDamp=-1.
 RMSDP=5.02D-04 MaxDP=8.15D-03              OVMax= 7.19D-03

 Cycle   2  Pass 1  IDiag  1:
 E= -154.092422106169     Delta-E=       -0.001362950823 Rises=F Damp=F
 DIIS: error= 6.80D-04 at cycle   2 NSaved=   2.
 NSaved= 2 IEnMin= 2 EnMin= -154.092422106169     IErMin= 2 ErrMin= 6.80D-04
 ErrMax= 6.80D-04  0.00D+00 EMaxC= 1.00D-01 BMatC= 6.81D-05 BMatP= 1.11D-03
 IDIUse=3 WtCom= 9.93D-01 WtEn= 6.80D-03
 Coeff-Com: -0.194D+00 0.119D+01
 Coeff-En:   0.000D+00 0.100D+01
 Coeff:     -0.193D+00 0.119D+01
 Gap=     0.616 Goal=   None    Shift=    0.000
 RMSDP=1.70D-04 MaxDP=2.67D-03 DE=-1.36D-03 OVMax= 3.26D-03

 Cycle   3  Pass 1  IDiag  1:
 E= -154.092543710052     Delta-E=       -0.000121603883 Rises=F Damp=F
 DIIS: error= 2.42D-04 at cycle   3 NSaved=   3.
 NSaved= 3 IEnMin= 3 EnMin= -154.092543710052     IErMin= 3 ErrMin= 2.42D-04
 ErrMax= 2.42D-04  0.00D+00 EMaxC= 1.00D-01 BMatC= 7.04D-06 BMatP= 6.81D-05
 IDIUse=3 WtCom= 9.98D-01 WtEn= 2.42D-03
 Coeff-Com: -0.655D-01 0.189D+00 0.876D+00
 Coeff-En:   0.000D+00 0.000D+00 0.100D+01
 Coeff:     -0.654D-01 0.189D+00 0.877D+00
 Gap=     0.617 Goal=   None    Shift=    0.000
 RMSDP=4.28D-05 MaxDP=7.81D-04 DE=-1.22D-04 OVMax= 8.91D-04

 Cycle   4  Pass 1  IDiag  1:
 E= -154.092553059044     Delta-E=       -0.000009348992 Rises=F Damp=F
 DIIS: error= 7.89D-05 at cycle   4 NSaved=   4.
 NSaved= 4 IEnMin= 4 EnMin= -154.092553059044     IErMin= 4 ErrMin= 7.89D-05
 ErrMax= 7.89D-05  0.00D+00 EMaxC= 1.00D-01 BMatC= 9.79D-07 BMatP= 7.04D-06
 IDIUse=1 WtCom= 1.00D+00 WtEn= 0.00D+00
 Coeff-Com:  0.153D-01-0.129D+00 0.121D+00 0.993D+00
 Coeff:      0.153D-01-0.129D+00 0.121D+00 0.993D+00
 Gap=     0.617 Goal=   None    Shift=    0.000
 RMSDP=2.02D-05 MaxDP=3.78D-04 DE=-9.35D-06 OVMax= 4.15D-04

 Cycle   5  Pass 1  IDiag  1:
 E= -154.092554577493     Delta-E=       -0.000001518449 Rises=F Damp=F
 DIIS: error= 2.07D-05 at cycle   5 NSaved=   5.
 NSaved= 5 IEnMin= 5 EnMin= -154.092554577493     IErMin= 5 ErrMin= 2.07D-05
 ErrMax= 2.07D-05  0.00D+00 EMaxC= 1.00D-01 BMatC= 3.99D-08 BMatP= 9.79D-07
 IDIUse=1 WtCom= 1.00D+00 WtEn= 0.00D+00
 Coeff-Com:  0.394D-02-0.100D-01-0.601D-01-0.211D-01 0.109D+01
 Coeff:      0.394D-02-0.100D-01-0.601D-01-0.211D-01 0.109D+01
 Gap=     0.616 Goal=   None    Shift=    0.000
 RMSDP=5.88D-06 MaxDP=8.24D-05 DE=-1.52D-06 OVMax= 1.24D-04

 Cycle   6  Pass 1  IDiag  1:
 E= -154.092554668409     Delta-E=       -0.000000090916 Rises=F Damp=F
 DIIS: error= 6.40D-06 at cycle   6 NSaved=   6.
 NSaved= 6 IEnMin= 6 EnMin= -154.092554668409     IErMin= 6 ErrMin= 6.40D-06
 ErrMax= 6.40D-06  0.00D+00 EMaxC= 1.00D-01 BMatC= 3.25D-09 BMatP= 3.99D-08
 IDIUse=1 WtCom= 1.00D+00 WtEn= 0.00D+00
 Coeff-Com: -0.853D-03 0.741D-02-0.642D-02-0.581D-01-0.265D-02 0.106D+01
 Coeff:     -0.853D-03 0.741D-02-0.642D-02-0.581D-01-0.265D-02 0.106D+01
 Gap=     0.616 Goal=   None    Shift=    0.000
 RMSDP=1.53D-06 MaxDP=2.43D-05 DE=-9.09D-08 OVMax= 2.93D-05

 Cycle   7  Pass 1  IDiag  1:
 E= -154.092554675368     Delta-E=       -0.000000006959 Rises=F Damp=F
 DIIS: error= 1.80D-06 at cycle   7 NSaved=   7.
 NSaved= 7 IEnMin= 7 EnMin= -154.092554675368     IErMin= 7 ErrMin= 1.80D-06
 ErrMax= 1.80D-06  0.00D+00 EMaxC= 1.00D-01 BMatC= 3.60D-10 BMatP= 3.25D-09
 IDIUse=1 WtCom= 1.00D+00 WtEn= 0.00D+00
 Coeff-Com: -0.454D-03 0.148D-02 0.536D-02-0.202D-02-0.115D+00 0.752D-01
 Coeff-Com:  0.104D+01
 Coeff:     -0.454D-03 0.148D-02 0.536D-02-0.202D-02-0.115D+00 0.752D-01
 Coeff:      0.104D+01
 Gap=     0.616 Goal=   None    Shift=    0.000
 RMSDP=5.11D-07 MaxDP=8.05D-06 DE=-6.96D-09 OVMax= 1.23D-05

 Cycle   8  Pass 1  IDiag  1:
 E= -154.092554676151     Delta-E=       -0.000000000783 Rises=F Damp=F
 DIIS: error= 3.74D-07 at cycle   8 NSaved=   8.
 NSaved= 8 IEnMin= 8 EnMin= -154.092554676151     IErMin= 8 ErrMin= 3.74D-07
 ErrMax= 3.74D-07  0.00D+00 EMaxC= 1.00D-01 BMatC= 2.05D-11 BMatP= 3.60D-10
 IDIUse=1 WtCom= 1.00D+00 WtEn= 0.00D+00
 Coeff-Com:  0.128D-03-0.742D-03-0.292D-03 0.470D-02 0.170D-01-0.863D-01
 Coeff-Com: -0.136D+00 0.120D+01
 Coeff:      0.128D-03-0.742D-03-0.292D-03 0.470D-02 0.170D-01-0.863D-01
 Coeff:     -0.136D+00 0.120D+01
 Gap=     0.616 Goal=   None    Shift=    0.000
 RMSDP=1.58D-07 MaxDP=1.81D-06 DE=-7.83D-10 OVMax= 4.22D-06

 Cycle   9  Pass 1  IDiag  1:
 E= -154.092554676209     Delta-E=       -0.000000000058 Rises=F Damp=F
 DIIS: error= 1.17D-07 at cycle   9 NSaved=   9.
 NSaved= 9 IEnMin= 9 EnMin= -154.092554676209     IErMin= 9 ErrMin= 1.17D-07
 ErrMax= 1.17D-07  0.00D+00 EMaxC= 1.00D-01 BMatC= 1.18D-12 BMatP= 2.05D-11
 IDIUse=1 WtCom= 1.00D+00 WtEn= 0.00D+00
 Coeff-Com:  0.904D-05 0.185D-04-0.298D-03-0.561D-03 0.478D-02 0.652D-02
 Coeff-Com: -0.469D-01-0.179D+00 0.122D+01
 Coeff:      0.904D-05 0.185D-04-0.298D-03-0.561D-03 0.478D-02 0.652D-02
 Coeff:     -0.469D-01-0.179D+00 0.122D+01
 Gap=     0.616 Goal=   None    Shift=    0.000
 RMSDP=4.38D-08 MaxDP=5.47D-07 DE=-5.84D-11 OVMax= 1.27D-06

 Cycle  10  Pass 1  IDiag  1:
 E= -154.092554676214     Delta-E=       -0.000000000005 Rises=F Damp=F
 DIIS: error= 2.93D-08 at cycle  10 NSaved=  10.
 NSaved=10 IEnMin=10 EnMin= -154.092554676214     IErMin=10 ErrMin= 2.93D-08
 ErrMax= 2.93D-08  0.00D+00 EMaxC= 1.00D-01 BMatC= 6.06D-14 BMatP= 1.18D-12
 IDIUse=1 WtCom= 1.00D+00 WtEn= 0.00D+00
 Coeff-Com: -0.760D-05 0.300D-04 0.767D-04-0.114D-03-0.191D-02 0.332D-02
 Coeff-Com:  0.168D-01-0.343D-01-0.194D+00 0.121D+01
 Coeff:     -0.760D-05 0.300D-04 0.767D-04-0.114D-03-0.191D-02 0.332D-02
 Coeff:      0.168D-01-0.343D-01-0.194D+00 0.121D+01
 Gap=     0.616 Goal=   None    Shift=    0.000
 RMSDP=8.37D-09 MaxDP=1.17D-07 DE=-4.83D-12 OVMax= 2.55D-07

 SCF Done:  E(RHF) =  -154.092554676     A.U. after   10 cycles
            NFock= 10  Conv=0.84D-08     -V/T= 2.0005
 KE= 1.540203488543D+02 PE=-5.260121311105D+02 EE= 1.358450543751D+02
 Leave Link  502 at Thu Dec 16 11:32:18 2021, MaxMem=   536870912 cpu:               3.1 elap:               1.1
 (Enter /opt/gaussian/g16/sse4/g16/l701.exe)
 ... and contract with generalized density number  0.
 Compute integral first derivatives.
 Leave Link  701 at Thu Dec 16 11:32:19 2021, MaxMem=   536870912 cpu:               0.5 elap:               0.1
 (Enter /opt/gaussian/g16/sse4/g16/l702.exe)
 L702 exits ... SP integral derivatives will be done elsewhere.
 Leave Link  702 at Thu Dec 16 11:32:19 2021, MaxMem=   536870912 cpu:               0.1 elap:               0.0
 (Enter /opt/gaussian/g16/sse4/g16/l703.exe)
 Integral derivatives from FoFJK, PRISM(SPDF).
 Compute integral first derivatives, UseDBF=F ICtDFT=           0.
 Calling FoFJK, ICntrl=      2127 FMM=F ISym2X=0 I1Cent= 0 IOpClX= 0 NMat=1 NMatS=1 NMatT=0.
 FoFJK:  IHMeth= 1 ICntrl=    2127 DoSepK=F KAlg= 0 I1Cent=           0 FoldK=F
 IRaf=         0 NMat=       1 IRICut=       1 DoRegI=T DoRafI=F ISym2E= 0 IDoP0=0 IntGTp=1.
 FoFCou: FMM=F IPFlag=           0 FMFlag=      100000 FMFlg1=         800
         NFxFlg=           0 DoJE=F BraDBF=F KetDBF=F FulRan=T
         wScrn=  0.000000 ICntrl=      2127 IOpCl=  0 I1Cent=           0 NGrid=           0
         NMat0=    1 NMatS0=      1 NMatT0=    0 NMatD0=    1 NMtDS0=    0 NMtDT0=    0
 Symmetry not used in FoFCou.
 Leave Link  703 at Thu Dec 16 11:32:19 2021, MaxMem=   536870912 cpu:               1.5 elap:               0.4
 (Enter /opt/gaussian/g16/sse4/g16/l716.exe)
 Dipole        =-4.75482674D-01-5.78869820D-02 4.79281334D-01
 ***** Axes restored to original set *****
 -------------------------------------------------------------------
 Center     Atomic                   Forces (Hartrees/Bohr)
 Number     Number              X              Y              Z
 -------------------------------------------------------------------
      1        6           0.000688974    0.002056858   -0.001568628
      2        6           0.003146692    0.004808751    0.002630400
      3        8          -0.004132493   -0.005803106    0.001146285
      4        1           0.001238565   -0.000131727   -0.000144768
      5        1          -0.000479621   -0.000333533   -0.000126660
      6        1          -0.000304994    0.000030205    0.000224125
      7        1           0.000006359   -0.000098892   -0.000899728
      8        1          -0.000434513   -0.002198162    0.001567770
      9        1           0.000271031    0.001669605   -0.002828795
 -------------------------------------------------------------------
 Cartesian Forces:  Max     0.005803106 RMS     0.002111811
 Leave Link  716 at Thu Dec 16 11:32:20 2021, MaxMem=   536870912 cpu:               0.1 elap:               0.0
 (Enter /opt/gaussian/g16/sse4/g16/l103.exe)

 GradGradGradGradGradGradGradGradGradGradGradGradGradGradGradGradGradGrad
 Berny optimization.
 Using GEDIIS/GDIIS optimizer.
 FormGI is forming the generalized inverse of G from B-inverse, IUseBI=4.
 Internal  Forces:  Max     0.004078011 RMS     0.001452940
 Search for a local minimum.
 Step number   2 out of a maximum of   43
 All quantities printed in internal units (Hartrees-Bohrs-Radians)
 RMS Force = .14529D-02 SwitMx=.10000D-02 MixMth= 1
 Mixed Optimization -- RFO/linear search
 Update second derivatives using D2CorX and points    1    2
 DE= -1.60D-03 DEPred=-1.96D-03 R= 8.18D-01
 TightC=F SS=  1.41D+00  RLast= 1.60D-01 DXNew= 5.0454D-01 4.8026D-01
 Trust test= 8.18D-01 RLast= 1.60D-01 DXMaxT set to 4.80D-01
 ITU=  1  0
 Use linear search instead of GDIIS.
     Eigenvalues ---    0.00573   0.01423   0.05522   0.05610   0.05696
     Eigenvalues ---    0.05832   0.11941   0.14076   0.15642   0.16000
     Eigenvalues ---    0.16000   0.16459   0.23928   0.31074   0.34215
     Eigenvalues ---    0.34251   0.34310   0.34392   0.34610   0.40066
     Eigenvalues ---    0.54474
 RFO step:  Lambda=-2.32932302D-04 EMin= 5.72996533D-03
 Quartic linear search produced a step of -0.13681.
 Iteration  1 RMS(Cart)=  0.00773181 RMS(Int)=  0.00007373
 Iteration  2 RMS(Cart)=  0.00006108 RMS(Int)=  0.00005426
 Iteration  3 RMS(Cart)=  0.00000000 RMS(Int)=  0.00005426
 ITry= 1 IFail=0 DXMaxC= 2.13D-02 DCOld= 1.00D+10 DXMaxT= 4.80D-01 DXLimC= 3.00D+00 Rises=F
 Variable       Old X    -DE/DX   Delta X   Delta X   Delta X     New X
                                 (Linear)    (Quad)   (Total)
    R1        2.87207  -0.00121  -0.00135  -0.00133  -0.00268   2.86938
    R2        2.06535  -0.00039   0.00016  -0.00122  -0.00106   2.06429
    R3        2.06803   0.00031   0.00016   0.00053   0.00069   2.06873
    R4        2.06264   0.00023   0.00089  -0.00076   0.00013   2.06277
    R5        2.66315  -0.00408   0.00282  -0.01252  -0.00970   2.65346
    R6        2.06962   0.00048  -0.00026   0.00159   0.00133   2.07096
    R7        2.05697   0.00125   0.00139   0.00105   0.00243   2.05941
    R8        1.78369   0.00262   0.00737  -0.00677   0.00060   1.78429
    A1        1.94653  -0.00202  -0.00153  -0.01064  -0.01217   1.93436
    A2        1.93349   0.00085  -0.00019   0.00567   0.00545   1.93894
    A3        1.92232   0.00065   0.00110   0.00315   0.00423   1.92654
    A4        1.88134   0.00029   0.00233  -0.00450  -0.00217   1.87917
    A5        1.89538   0.00050   0.00065   0.00019   0.00083   1.89622
    A6        1.88295  -0.00024  -0.00235   0.00644   0.00405   1.88700
    A7        1.97194  -0.00286  -0.00718  -0.00014  -0.00727   1.96467
    A8        1.92916   0.00053   0.00117  -0.00700  -0.00567   1.92349
    A9        1.92236  -0.00031   0.00082   0.00018   0.00093   1.92329
   A10        1.93669   0.00020  -0.00535   0.00005  -0.00524   1.93145
   A11        1.82676   0.00294   0.00837   0.01300   0.02131   1.84807
   A12        1.87180  -0.00028   0.00272  -0.00535  -0.00265   1.86915
   A13        1.88760   0.00354  -0.00145   0.02129   0.01984   1.90745
    D1       -3.08014  -0.00111  -0.00623  -0.00718  -0.01341  -3.09355
    D2        1.02104   0.00037   0.00487  -0.00169   0.00318   1.02422
    D3       -1.04426   0.00058   0.00021   0.00913   0.00935  -1.03490
    D4        1.10745  -0.00071  -0.00802   0.00178  -0.00623   1.10122
    D5       -1.07456   0.00077   0.00308   0.00728   0.01036  -1.06419
    D6       -3.13986   0.00099  -0.00158   0.01809   0.01653  -3.12332
    D7       -0.97435  -0.00137  -0.00568  -0.01184  -0.01754  -0.99189
    D8        3.12683   0.00011   0.00542  -0.00634  -0.00094   3.12589
    D9        1.06153   0.00033   0.00076   0.00448   0.00523   1.06676
   D10       -1.07929   0.00033   0.00469  -0.00248   0.00238  -1.07691
   D11        1.09863  -0.00099  -0.00255  -0.01183  -0.01453   1.08409
   D12        3.11221   0.00039   0.00253  -0.01093  -0.00842   3.10379
         Item               Value     Threshold  Converged?
 Maximum Force            0.004078     0.000450     NO 
 RMS     Force            0.001453     0.000300     NO 
 Maximum Displacement     0.021325     0.001800     NO 
 RMS     Displacement     0.007724     0.001200     NO 
 Predicted change in Energy=-1.602798D-04
 Lowest energy point so far.  Saving SCF results.
 GradGradGradGradGradGradGradGradGradGradGradGradGradGradGradGradGradGrad

 Leave Link  103 at Thu Dec 16 11:32:20 2021, MaxMem=   536870912 cpu:               0.0 elap:               0.1
 (Enter /opt/gaussian/g16/sse4/g16/l202.exe)
                          Input orientation:                          
 ---------------------------------------------------------------------
 Center     Atomic      Atomic             Coordinates (Angstroms)
 Number     Number       Type             X           Y           Z
 ---------------------------------------------------------------------
      1          6           0        0.997048    0.073068   -0.058509
      2          6           0        2.514957    0.092322   -0.092607
      3          8           0        3.025388    1.241281   -0.717898
      4          1           0        0.631626   -0.806931    0.475673
      5          1           0        0.580574    0.044145   -1.070501
      6          1           0        0.616593    0.966689    0.439712
      7          1           0        2.894199   -0.813521   -0.579052
      8          1           0        2.913974    0.102370    0.921460
      9          1           0        2.734421    1.263007   -1.615888
 ---------------------------------------------------------------------
                    Distance matrix (angstroms):
                    1          2          3          4          5
     1  C    0.000000
     2  C    1.518413   0.000000
     3  O    2.431805   1.404149   0.000000
     4  H    1.092375   2.162992   3.368959   0.000000
     5  H    1.094722   2.168048   2.744919   1.765670   0.000000
     6  H    1.091572   2.156772   2.686588   1.774049   1.770065
     7  H    2.157820   1.095904   2.063661   2.496343   2.515943
     8  H    2.153091   1.089792   1.999256   2.496932   3.068559
     9  H    2.619132   1.933664   0.944204   3.616770   2.534192
                    6          7          8          9
     6  H    0.000000
     7  H    3.065048   0.000000
     8  H    2.501417   1.758062   0.000000
     9  H    2.966226   2.326484   2.795971   0.000000
 Stoichiometry    C2H6O
 Framework group  C1[X(C2H6O)]
 Deg. of freedom    21
 Full point group                 C1      NOp   1
 RotChk:  IX=0 Diff= 1.55D-02
 Largest Abelian subgroup         C1      NOp   1
 Largest concise Abelian subgroup C1      NOp   1
                         Standard orientation:                         
 ---------------------------------------------------------------------
 Center     Atomic      Atomic             Coordinates (Angstroms)
 Number     Number       Type             X           Y           Z
 ---------------------------------------------------------------------
      1          6           0       -1.206430   -0.236832   -0.020141
      2          6           0        0.088998    0.552589    0.045128
      3          8           0        1.223709   -0.260379   -0.107014
      4          1           0       -2.070373    0.427703    0.052505
      5          1           0       -1.270940   -0.956744    0.802041
      6          1           0       -1.268531   -0.788487   -0.960007
      7          1           0        0.141062    1.117773    0.982604
      8          1           0        0.129658    1.276790   -0.768215
      9          1           0        1.254044   -0.888545    0.597265
 ---------------------------------------------------------------------
 Rotational constants (GHZ):          34.7582072           9.3248771           8.2324018
 Leave Link  202 at Thu Dec 16 11:32:20 2021, MaxMem=   536870912 cpu:               0.0 elap:               0.0
 (Enter /opt/gaussian/g16/sse4/g16/l301.exe)
 Standard basis: CC-pVDZ (5D, 7F)
 Ernie: Thresh=  0.10000D-02 Tol=  0.10000D-05 Strict=F.
 Ernie:  6 primitive shells out of 96 were deleted.
 There are    75 symmetry adapted cartesian basis functions of A   symmetry.
 There are    72 symmetry adapted basis functions of A   symmetry.
    72 basis functions,   141 primitive gaussians,    75 cartesian basis functions
    13 alpha electrons       13 beta electrons
       nuclear repulsion energy        82.1783150609 Hartrees.
 IExCor=    0 DFT=F Ex=HF Corr=None ExCW=0 ScaHFX=  1.000000
 ScaDFX=  1.000000  1.000000  1.000000  1.000000 ScalE2=  1.000000  1.000000
 IRadAn=      5 IRanWt=     -1 IRanGd=            0 ICorTp=0 IEmpDi=  4
 NAtoms=    9 NActive=    9 NUniq=    9 SFac= 1.00D+00 NAtFMM=   60 NAOKFM=F Big=F
 Integral buffers will be    131072 words long.
 Raffenetti 1 integral format.
 Two-electron integral symmetry is turned on.
 Leave Link  301 at Thu Dec 16 11:32:20 2021, MaxMem=   536870912 cpu:               0.2 elap:               0.0
 (Enter /opt/gaussian/g16/sse4/g16/l302.exe)
 NPDir=0 NMtPBC=     1 NCelOv=     1 NCel=       1 NClECP=     1 NCelD=      1
         NCelK=      1 NCelE2=     1 NClLst=     1 CellRange=     0.0.
 One-electron integrals computed using PRISM.
 One-electron integral symmetry used in STVInt
 NBasis=    72 RedAO= T EigKep=  6.40D-03  NBF=    72
 NBsUse=    72 1.00D-06 EigRej= -1.00D+00 NBFU=    72
 Leave Link  302 at Thu Dec 16 11:32:20 2021, MaxMem=   536870912 cpu:               0.5 elap:               0.2
 (Enter /opt/gaussian/g16/sse4/g16/l303.exe)
 DipDrv:  MaxL=1.
 Leave Link  303 at Thu Dec 16 11:32:21 2021, MaxMem=   536870912 cpu:               0.1 elap:               0.1
 (Enter /opt/gaussian/g16/sse4/g16/l401.exe)
 Initial guess from the checkpoint file:  "HF_Ethanol_gaus.chk"
 B after Tr=    -0.000000   -0.000000    0.000000
         Rot=    0.999992   -0.003969   -0.000849   -0.000165 Ang=  -0.47 deg.
 Guess basis will be translated and rotated to current coordinates.
 JPrj=2 DoOrth=T DoCkMO=T.
 Generating alternative initial guess.
 ExpMin= 1.22D-01 ExpMax= 1.17D+04 ExpMxC= 4.01D+02 IAcc=2 IRadAn=         4 AccDes= 0.00D+00
 Harris functional with IExCor=  205 and IRadAn=       4 diagonalized for initial guess.
 HarFok:  IExCor=  205 AccDes= 0.00D+00 IRadAn=         4 IDoV= 1 UseB2=F ITyADJ=14
 ICtDFT=  3500011 ScaDFX=  1.000000  1.000000  1.000000  1.000000
 FoFCou: FMM=F IPFlag=           0 FMFlag=      100000 FMFlg1=           0
         NFxFlg=           0 DoJE=T BraDBF=F KetDBF=T FulRan=T
         wScrn=  0.000000 ICntrl=       500 IOpCl=  0 I1Cent=   200000004 NGrid=           0
         NMat0=    1 NMatS0=      1 NMatT0=    0 NMatD0=    1 NMtDS0=    0 NMtDT0=    0
 Petite list used in FoFCou.
 Harris En= -154.358172272035    
 Leave Link  401 at Thu Dec 16 11:32:21 2021, MaxMem=   536870912 cpu:               1.3 elap:               0.3
 (Enter /opt/gaussian/g16/sse4/g16/l502.exe)
 Keep R1 ints in memory in canonical form, NReq=4336555.
 FoFCou: FMM=F IPFlag=           0 FMFlag=           0 FMFlg1=           0
         NFxFlg=           0 DoJE=F BraDBF=F KetDBF=F FulRan=T
         wScrn=  0.000000 ICntrl=       600 IOpCl=  0 I1Cent=           0 NGrid=           0
         NMat0=    1 NMatS0=   2628 NMatT0=    0 NMatD0=    1 NMtDS0=    0 NMtDT0=    0
 Symmetry not used in FoFCou.
 Two-electron integral symmetry not used.
 Closed shell SCF:
 Using DIIS extrapolation, IDIIS=  1040.
 NGot=   536870912 LenX=   533403697 LenY=   533397631
 Requested convergence on RMS density matrix=1.00D-08 within 128 cycles.
 Requested convergence on MAX density matrix=1.00D-06.
 Requested convergence on             energy=1.00D-06.
 No special actions if energy rises.

 Cycle   1  Pass 1  IDiag  1:
 E= -154.092636938893    
 DIIS: error= 6.64D-04 at cycle   1 NSaved=   1.
 NSaved= 1 IEnMin= 1 EnMin= -154.092636938893     IErMin= 1 ErrMin= 6.64D-04
 ErrMax= 6.64D-04  0.00D+00 EMaxC= 1.00D-01 BMatC= 5.40D-05 BMatP= 5.40D-05
 IDIUse=3 WtCom= 9.93D-01 WtEn= 6.64D-03
 Coeff-Com:  0.100D+01
 Coeff-En:   0.100D+01
 Coeff:      0.100D+01
 Gap=     0.977 Goal=   None    Shift=    0.000
 RMSDP=1.20D-04 MaxDP=1.69D-03              OVMax= 1.62D-03

 Cycle   2  Pass 1  IDiag  1:
 E= -154.092703256543     Delta-E=       -0.000066317649 Rises=F Damp=F
 DIIS: error= 1.38D-04 at cycle   2 NSaved=   2.
 NSaved= 2 IEnMin= 2 EnMin= -154.092703256543     IErMin= 2 ErrMin= 1.38D-04
 ErrMax= 1.38D-04  0.00D+00 EMaxC= 1.00D-01 BMatC= 3.07D-06 BMatP= 5.40D-05
 IDIUse=3 WtCom= 9.99D-01 WtEn= 1.38D-03
 Coeff-Com: -0.183D+00 0.118D+01
 Coeff-En:   0.000D+00 0.100D+01
 Coeff:     -0.183D+00 0.118D+01
 Gap=     0.615 Goal=   None    Shift=    0.000
 RMSDP=3.70D-05 MaxDP=3.86D-04 DE=-6.63D-05 OVMax= 6.34D-04

 Cycle   3  Pass 1  IDiag  1:
 E= -154.092708183019     Delta-E=       -0.000004926476 Rises=F Damp=F
 DIIS: error= 5.23D-05 at cycle   3 NSaved=   3.
 NSaved= 3 IEnMin= 3 EnMin= -154.092708183019     IErMin= 3 ErrMin= 5.23D-05
 ErrMax= 5.23D-05  0.00D+00 EMaxC= 1.00D-01 BMatC= 3.48D-07 BMatP= 3.07D-06
 IDIUse=1 WtCom= 1.00D+00 WtEn= 0.00D+00
 Coeff-Com: -0.712D-01 0.264D+00 0.807D+00
 Coeff:     -0.712D-01 0.264D+00 0.807D+00
 Gap=     0.615 Goal=   None    Shift=    0.000
 RMSDP=8.21D-06 MaxDP=1.80D-04 DE=-4.93D-06 OVMax= 1.59D-04

 Cycle   4  Pass 1  IDiag  1:
 E= -154.092708580176     Delta-E=       -0.000000397158 Rises=F Damp=F
 DIIS: error= 1.54D-05 at cycle   4 NSaved=   4.
 NSaved= 4 IEnMin= 4 EnMin= -154.092708580176     IErMin= 4 ErrMin= 1.54D-05
 ErrMax= 1.54D-05  0.00D+00 EMaxC= 1.00D-01 BMatC= 3.42D-08 BMatP= 3.48D-07
 IDIUse=1 WtCom= 1.00D+00 WtEn= 0.00D+00
 Coeff-Com:  0.195D-01-0.132D+00 0.271D-01 0.109D+01
 Coeff:      0.195D-01-0.132D+00 0.271D-01 0.109D+01
 Gap=     0.615 Goal=   None    Shift=    0.000
 RMSDP=4.18D-06 MaxDP=4.26D-05 DE=-3.97D-07 OVMax= 8.76D-05

 Cycle   5  Pass 1  IDiag  1:
 E= -154.092708641645     Delta-E=       -0.000000061469 Rises=F Damp=F
 DIIS: error= 4.43D-06 at cycle   5 NSaved=   5.
 NSaved= 5 IEnMin= 5 EnMin= -154.092708641645     IErMin= 5 ErrMin= 4.43D-06
 ErrMax= 4.43D-06  0.00D+00 EMaxC= 1.00D-01 BMatC= 1.96D-09 BMatP= 3.42D-08
 IDIUse=1 WtCom= 1.00D+00 WtEn= 0.00D+00
 Coeff-Com:  0.471D-02-0.190D-01-0.462D-01 0.232D-01 0.104D+01
 Coeff:      0.471D-02-0.190D-01-0.462D-01 0.232D-01 0.104D+01
 Gap=     0.615 Goal=   None    Shift=    0.000
 RMSDP=1.22D-06 MaxDP=1.67D-05 DE=-6.15D-08 OVMax= 2.72D-05

 Cycle   6  Pass 1  IDiag  1:
 E= -154.092708646239     Delta-E=       -0.000000004594 Rises=F Damp=F
 DIIS: error= 1.34D-06 at cycle   6 NSaved=   6.
 NSaved= 6 IEnMin= 6 EnMin= -154.092708646239     IErMin= 6 ErrMin= 1.34D-06
 ErrMax= 1.34D-06  0.00D+00 EMaxC= 1.00D-01 BMatC= 2.54D-10 BMatP= 1.96D-09
 IDIUse=1 WtCom= 1.00D+00 WtEn= 0.00D+00
 Coeff-Com: -0.179D-02 0.130D-01-0.639D-02-0.123D+00 0.757D-01 0.104D+01
 Coeff:     -0.179D-02 0.130D-01-0.639D-02-0.123D+00 0.757D-01 0.104D+01
 Gap=     0.615 Goal=   None    Shift=    0.000
 RMSDP=4.74D-07 MaxDP=5.74D-06 DE=-4.59D-09 OVMax= 1.21D-05

 Cycle   7  Pass 1  IDiag  1:
 E= -154.092708646815     Delta-E=       -0.000000000577 Rises=F Damp=F
 DIIS: error= 4.11D-07 at cycle   7 NSaved=   7.
 NSaved= 7 IEnMin= 7 EnMin= -154.092708646815     IErMin= 7 ErrMin= 4.11D-07
 ErrMax= 4.11D-07  0.00D+00 EMaxC= 1.00D-01 BMatC= 1.36D-11 BMatP= 2.54D-10
 IDIUse=1 WtCom= 1.00D+00 WtEn= 0.00D+00
 Coeff-Com: -0.686D-04-0.420D-03 0.441D-02 0.143D-01-0.989D-01-0.868D-01
 Coeff-Com:  0.117D+01
 Coeff:     -0.686D-04-0.420D-03 0.441D-02 0.143D-01-0.989D-01-0.868D-01
 Coeff:      0.117D+01
 Gap=     0.615 Goal=   None    Shift=    0.000
 RMSDP=1.27D-07 MaxDP=1.64D-06 DE=-5.77D-10 OVMax= 3.61D-06

 Cycle   8  Pass 1  IDiag  1:
 E= -154.092708646852     Delta-E=       -0.000000000037 Rises=F Damp=F
 DIIS: error= 6.42D-08 at cycle   8 NSaved=   8.
 NSaved= 8 IEnMin= 8 EnMin= -154.092708646852     IErMin= 8 ErrMin= 6.42D-08
 ErrMax= 6.42D-08  0.00D+00 EMaxC= 1.00D-01 BMatC= 5.87D-13 BMatP= 1.36D-11
 IDIUse=1 WtCom= 1.00D+00 WtEn= 0.00D+00
 Coeff-Com:  0.108D-03-0.557D-03-0.843D-03 0.252D-02 0.215D-01-0.231D-01
 Coeff-Com: -0.310D+00 0.131D+01
 Coeff:      0.108D-03-0.557D-03-0.843D-03 0.252D-02 0.215D-01-0.231D-01
 Coeff:     -0.310D+00 0.131D+01
 Gap=     0.615 Goal=   None    Shift=    0.000
 RMSDP=3.02D-08 MaxDP=3.24D-07 DE=-3.65D-11 OVMax= 9.35D-07

 Cycle   9  Pass 1  IDiag  1:
 E= -154.092708646854     Delta-E=       -0.000000000002 Rises=F Damp=F
 DIIS: error= 1.82D-08 at cycle   9 NSaved=   9.
 NSaved= 9 IEnMin= 9 EnMin= -154.092708646854     IErMin= 9 ErrMin= 1.82D-08
 ErrMax= 1.82D-08  0.00D+00 EMaxC= 1.00D-01 BMatC= 3.16D-14 BMatP= 5.87D-13
 IDIUse=1 WtCom= 1.00D+00 WtEn= 0.00D+00
 Coeff-Com: -0.158D-04 0.118D-03-0.448D-04-0.116D-02 0.680D-03 0.842D-02
 Coeff-Com: -0.111D-02-0.245D+00 0.124D+01
 Coeff:     -0.158D-04 0.118D-03-0.448D-04-0.116D-02 0.680D-03 0.842D-02
 Coeff:     -0.111D-02-0.245D+00 0.124D+01
 Gap=     0.615 Goal=   None    Shift=    0.000
 RMSDP=7.01D-09 MaxDP=8.72D-08 DE=-1.71D-12 OVMax= 2.27D-07

 SCF Done:  E(RHF) =  -154.092708647     A.U. after    9 cycles
            NFock=  9  Conv=0.70D-08     -V/T= 2.0004
 KE= 1.540282768867D+02 PE=-5.262709908927D+02 EE= 1.359716902983D+02
 Leave Link  502 at Thu Dec 16 11:32:22 2021, MaxMem=   536870912 cpu:               2.6 elap:               0.8
 (Enter /opt/gaussian/g16/sse4/g16/l701.exe)
 ... and contract with generalized density number  0.
 Compute integral first derivatives.
 Leave Link  701 at Thu Dec 16 11:32:22 2021, MaxMem=   536870912 cpu:               0.5 elap:               0.1
 (Enter /opt/gaussian/g16/sse4/g16/l702.exe)
 L702 exits ... SP integral derivatives will be done elsewhere.
 Leave Link  702 at Thu Dec 16 11:32:22 2021, MaxMem=   536870912 cpu:               0.1 elap:               0.0
 (Enter /opt/gaussian/g16/sse4/g16/l703.exe)
 Integral derivatives from FoFJK, PRISM(SPDF).
 Compute integral first derivatives, UseDBF=F ICtDFT=           0.
 Calling FoFJK, ICntrl=      2127 FMM=F ISym2X=0 I1Cent= 0 IOpClX= 0 NMat=1 NMatS=1 NMatT=0.
 FoFJK:  IHMeth= 1 ICntrl=    2127 DoSepK=F KAlg= 0 I1Cent=           0 FoldK=F
 IRaf=         0 NMat=       1 IRICut=       1 DoRegI=T DoRafI=F ISym2E= 0 IDoP0=0 IntGTp=1.
 FoFCou: FMM=F IPFlag=           0 FMFlag=      100000 FMFlg1=         800
         NFxFlg=           0 DoJE=F BraDBF=F KetDBF=F FulRan=T
         wScrn=  0.000000 ICntrl=      2127 IOpCl=  0 I1Cent=           0 NGrid=           0
         NMat0=    1 NMatS0=      1 NMatT0=    0 NMatD0=    1 NMtDS0=    0 NMtDT0=    0
 Symmetry not used in FoFCou.
 Leave Link  703 at Thu Dec 16 11:32:23 2021, MaxMem=   536870912 cpu:               1.5 elap:               0.4
 (Enter /opt/gaussian/g16/sse4/g16/l716.exe)
 Dipole        =-4.60134332D-01-6.34995290D-02 4.77282407D-01
 ***** Axes restored to original set *****
 -------------------------------------------------------------------
 Center     Atomic                   Forces (Hartrees/Bohr)
 Number     Number              X              Y              Z
 -------------------------------------------------------------------
      1        6          -0.000078341    0.000024896    0.000082832
      2        6           0.000562156    0.001413620   -0.001501729
      3        8           0.000299645   -0.000595617    0.002617611
      4        1          -0.000102797   -0.000256244    0.000219167
      5        1           0.000165935    0.000106668    0.000084502
      6        1          -0.000191600    0.000076894   -0.000034940
      7        1          -0.000014846   -0.000397614   -0.000044284
      8        1          -0.000029704    0.000029529    0.000127549
      9        1          -0.000610448   -0.000402132   -0.001550709
 -------------------------------------------------------------------
 Cartesian Forces:  Max     0.002617611 RMS     0.000750583
 Leave Link  716 at Thu Dec 16 11:32:23 2021, MaxMem=   536870912 cpu:               0.1 elap:               0.0
 (Enter /opt/gaussian/g16/sse4/g16/l103.exe)

 GradGradGradGradGradGradGradGradGradGradGradGradGradGradGradGradGradGrad
 Berny optimization.
 Using GEDIIS/GDIIS optimizer.
 FormGI is forming the generalized inverse of G from B-inverse, IUseBI=4.
 Internal  Forces:  Max     0.001653675 RMS     0.000427161
 Search for a local minimum.
 Step number   3 out of a maximum of   43
 All quantities printed in internal units (Hartrees-Bohrs-Radians)
 RMS Force = .42716D-03 SwitMx=.10000D-02 MixMth= 2
 Mixed Optimization -- En-DIIS/RFO-DIIS
 Update second derivatives using D2CorX and points    1    2    3
 DE= -1.54D-04 DEPred=-1.60D-04 R= 9.61D-01
 TightC=F SS=  1.41D+00  RLast= 5.12D-02 DXNew= 8.0769D-01 1.5347D-01
 Trust test= 9.61D-01 RLast= 5.12D-02 DXMaxT set to 4.80D-01
 ITU=  1  1  0
 Use linear search instead of GDIIS.
     Eigenvalues ---    0.00573   0.01402   0.05473   0.05679   0.05766
     Eigenvalues ---    0.05973   0.11720   0.14077   0.15972   0.16000
     Eigenvalues ---    0.16036   0.17432   0.25151   0.31382   0.33961
     Eigenvalues ---    0.34258   0.34260   0.34399   0.34901   0.37057
     Eigenvalues ---    0.53792
 RFO step:  Lambda=-1.75238717D-05 EMin= 5.72610094D-03
 Quartic linear search produced a step of -0.03049.
 Iteration  1 RMS(Cart)=  0.00179598 RMS(Int)=  0.00000662
 Iteration  2 RMS(Cart)=  0.00000574 RMS(Int)=  0.00000092
 Iteration  3 RMS(Cart)=  0.00000000 RMS(Int)=  0.00000092
 ITry= 1 IFail=0 DXMaxC= 5.51D-03 DCOld= 1.00D+10 DXMaxT= 4.80D-01 DXLimC= 3.00D+00 Rises=F
 Variable       Old X    -DE/DX   Delta X   Delta X   Delta X     New X
                                 (Linear)    (Quad)   (Total)
    R1        2.86938   0.00022   0.00008   0.00043   0.00051   2.86990
    R2        2.06429   0.00035   0.00003   0.00087   0.00090   2.06519
    R3        2.06873  -0.00014  -0.00002  -0.00034  -0.00036   2.06836
    R4        2.06277   0.00011  -0.00000   0.00033   0.00032   2.06309
    R5        2.65346  -0.00140   0.00030  -0.00407  -0.00378   2.64968
    R6        2.07096   0.00034  -0.00004   0.00108   0.00104   2.07200
    R7        2.05941   0.00011  -0.00007   0.00052   0.00044   2.05985
    R8        1.78429   0.00165  -0.00002   0.00301   0.00299   1.78728
    A1        1.93436  -0.00001   0.00037  -0.00091  -0.00054   1.93382
    A2        1.93894  -0.00022  -0.00017  -0.00108  -0.00124   1.93770
    A3        1.92654   0.00025  -0.00013   0.00190   0.00178   1.92832
    A4        1.87917   0.00012   0.00007   0.00049   0.00056   1.87972
    A5        1.89622  -0.00008  -0.00003   0.00005   0.00003   1.89624
    A6        1.88700  -0.00007  -0.00012  -0.00047  -0.00059   1.88641
    A7        1.96467   0.00028   0.00022   0.00079   0.00102   1.96569
    A8        1.92349  -0.00015   0.00017  -0.00090  -0.00072   1.92277
    A9        1.92329  -0.00018  -0.00003  -0.00188  -0.00191   1.92138
   A10        1.93145   0.00009   0.00016   0.00166   0.00182   1.93328
   A11        1.84807  -0.00010  -0.00065   0.00082   0.00017   1.84823
   A12        1.86915   0.00006   0.00008  -0.00053  -0.00045   1.86870
   A13        1.90745  -0.00077  -0.00061  -0.00279  -0.00340   1.90405
    D1       -3.09355   0.00007   0.00041   0.00108   0.00149  -3.09206
    D2        1.02422  -0.00013  -0.00010  -0.00099  -0.00109   1.02314
    D3       -1.03490   0.00000  -0.00029   0.00136   0.00107  -1.03383
    D4        1.10122   0.00007   0.00019   0.00177   0.00196   1.10317
    D5       -1.06419  -0.00012  -0.00032  -0.00030  -0.00062  -1.06481
    D6       -3.12332   0.00000  -0.00050   0.00205   0.00154  -3.12178
    D7       -0.99189   0.00014   0.00053   0.00181   0.00234  -0.98955
    D8        3.12589  -0.00006   0.00003  -0.00027  -0.00024   3.12565
    D9        1.06676   0.00007  -0.00016   0.00208   0.00192   1.06868
   D10       -1.07691  -0.00014  -0.00007  -0.00647  -0.00655  -1.08345
   D11        1.08409  -0.00008   0.00044  -0.00581  -0.00537   1.07873
   D12        3.10379  -0.00001   0.00026  -0.00515  -0.00490   3.09889
         Item               Value     Threshold  Converged?
 Maximum Force            0.001654     0.000450     NO 
 RMS     Force            0.000427     0.000300     NO 
 Maximum Displacement     0.005508     0.001800     NO 
 RMS     Displacement     0.001799     0.001200     NO 
 Predicted change in Energy=-8.912530D-06
 Lowest energy point so far.  Saving SCF results.
 GradGradGradGradGradGradGradGradGradGradGradGradGradGradGradGradGradGrad

 Leave Link  103 at Thu Dec 16 11:32:23 2021, MaxMem=   536870912 cpu:               0.0 elap:               0.0
 (Enter /opt/gaussian/g16/sse4/g16/l202.exe)
                          Input orientation:                          
 ---------------------------------------------------------------------
 Center     Atomic      Atomic             Coordinates (Angstroms)
 Number     Number       Type             X           Y           Z
 ---------------------------------------------------------------------
      1          6           0        0.996975    0.073610   -0.058093
      2          6           0        2.515109    0.093638   -0.093750
      3          8           0        3.024964    1.242051   -0.716022
      4          1           0        0.632932   -0.807465    0.476236
      5          1           0        0.580812    0.044654   -1.070005
      6          1           0        0.614696    0.966666    0.440119
      7          1           0        2.893773   -0.812936   -0.580525
      8          1           0        2.913330    0.102120    0.920895
      9          1           0        2.736190    1.260093   -1.616465
 ---------------------------------------------------------------------
                    Distance matrix (angstroms):
                    1          2          3          4          5
     1  C    0.000000
     2  C    1.518685   0.000000
     3  O    2.431227   1.402151   0.000000
     4  H    1.092853   2.163207   3.368058   0.000000
     5  H    1.094531   2.167252   2.744621   1.766262   0.000000
     6  H    1.091742   2.158417   2.687358   1.774592   1.769669
     7  H    2.157949   1.096454   2.063624   2.495632   2.514924
     8  H    2.152125   1.090026   1.997850   2.495052   3.067185
[...]
   A10        1.93395  -0.00000   0.00000  -0.00014  -0.00014   1.93382
   A11        1.84872   0.00000   0.00000  -0.00009  -0.00009   1.84863
   A12        1.86814  -0.00001   0.00000   0.00008   0.00008   1.86822
   A13        1.90435  -0.00000   0.00000  -0.00003  -0.00003   1.90432
    D1       -3.09239  -0.00000   0.00000   0.00017   0.00017  -3.09222
    D2        1.02224   0.00001   0.00000   0.00033   0.00033   1.02257
    D3       -1.03325  -0.00001   0.00000  -0.00000  -0.00000  -1.03325
    D4        1.10187   0.00001   0.00000   0.00029   0.00029   1.10216
    D5       -1.06668   0.00002   0.00000   0.00046   0.00046  -1.06622
    D6       -3.12218  -0.00000   0.00000   0.00012   0.00012  -3.12205
    D7       -0.98987  -0.00000   0.00000   0.00013   0.00013  -0.98973
    D8        3.12477   0.00001   0.00000   0.00030   0.00030   3.12506
    D9        1.06927  -0.00001   0.00000  -0.00003  -0.00003   1.06924
   D10       -1.09798  -0.00000   0.00000  -0.00077  -0.00077  -1.09875
   D11        1.06380   0.00000   0.00000  -0.00073  -0.00073   1.06308
   D12        3.08391  -0.00000   0.00000  -0.00075  -0.00075   3.08316
         Item               Value     Threshold  Converged?
 Maximum Force            0.000042     0.000450     YES
 RMS     Force            0.000014     0.000300     YES
 Maximum Displacement     0.000490     0.001800     YES
 RMS     Displacement     0.000176     0.001200     YES
 Predicted change in Energy=-2.557061D-08
 Optimization completed.
    -- Stationary point found.
                           ----------------------------
                           !   Optimized Parameters   !
                           ! (Angstroms and Degrees)  !
 --------------------------                            --------------------------
 ! Name  Definition              Value          Derivative Info.                !
 --------------------------------------------------------------------------------
 ! R1    R(1,2)                  1.519          -DE/DX =    0.0                 !
 ! R2    R(1,4)                  1.0928         -DE/DX =    0.0                 !
 ! R3    R(1,5)                  1.0946         -DE/DX =    0.0                 !
 ! R4    R(1,6)                  1.0917         -DE/DX =    0.0                 !
 ! R5    R(2,3)                  1.4021         -DE/DX =    0.0                 !
 ! R6    R(2,7)                  1.0965         -DE/DX =    0.0                 !
 ! R7    R(2,8)                  1.0901         -DE/DX =    0.0                 !
 ! R8    R(3,9)                  0.9457         -DE/DX =    0.0                 !
 ! A1    A(2,1,4)              110.8172         -DE/DX =    0.0                 !
 ! A2    A(2,1,5)              111.0242         -DE/DX =    0.0                 !
 ! A3    A(2,1,6)              110.467          -DE/DX =    0.0                 !
 ! A4    A(4,1,5)              107.7344         -DE/DX =    0.0                 !
 ! A5    A(4,1,6)              108.6471         -DE/DX =    0.0                 !
 ! A6    A(5,1,6)              108.0467         -DE/DX =    0.0                 !
 ! A7    A(1,2,3)              112.6647         -DE/DX =    0.0                 !
 ! A8    A(1,2,7)              110.1048         -DE/DX =    0.0                 !
 ! A9    A(1,2,8)              110.0752         -DE/DX =    0.0                 !
 ! A10   A(3,2,7)              110.8073         -DE/DX =    0.0                 !
 ! A11   A(3,2,8)              105.9239         -DE/DX =    0.0                 !
 ! A12   A(7,2,8)              107.0363         -DE/DX =    0.0                 !
 ! A13   A(2,3,9)              109.111          -DE/DX =    0.0                 !
 ! D1    D(4,1,2,3)           -177.1809         -DE/DX =    0.0                 !
 ! D2    D(4,1,2,7)             58.5703         -DE/DX =    0.0                 !
 ! D3    D(4,1,2,8)            -59.201          -DE/DX =    0.0                 !
 ! D4    D(5,1,2,3)             63.1326         -DE/DX =    0.0                 !
 ! D5    D(5,1,2,7)            -61.1161         -DE/DX =    0.0                 !
 ! D6    D(5,1,2,8)           -178.8875         -DE/DX =    0.0                 !
 ! D7    D(6,1,2,3)            -56.7153         -DE/DX =    0.0                 !
 ! D8    D(6,1,2,7)            179.0359         -DE/DX =    0.0                 !
 ! D9    D(6,1,2,8)             61.2646         -DE/DX =    0.0                 !
 ! D10   D(1,2,3,9)            -62.9096         -DE/DX =    0.0                 !
 ! D11   D(7,2,3,9)             60.9515         -DE/DX =    0.0                 !
 ! D12   D(8,2,3,9)            176.6952         -DE/DX =    0.0                 !
 --------------------------------------------------------------------------------
 GradGradGradGradGradGradGradGradGradGradGradGradGradGradGradGradGradGrad

 Leave Link  103 at Thu Dec 16 11:32:41 2021, MaxMem=   536870912 cpu:               0.0 elap:               0.0
 (Enter /opt/gaussian/g16/sse4/g16/l9999.exe)

 ----------------------------------------------------------------------

 Electric dipole moment (input orientation):
 (Debye = 10**-18 statcoulomb cm , SI units = C m)
                  (au)            (Debye)         (10**-30 SI)
   Tot        0.663973D+00      0.168765D+01      0.562940D+01
   x         -0.394476D+00     -0.100266D+01     -0.334450D+01
   y         -0.449039D+00     -0.114134D+01     -0.380711D+01
   z         -0.289160D+00     -0.734972D+00     -0.245160D+01

 Dipole polarizability, Alpha (input orientation).
 (esu units = cm**3 , SI units = C**2 m**2 J**-1)
 Alpha(0;0):
               (au)            (10**-24 esu)      (10**-40 SI)
   iso        0.260431D+02      0.385919D+01      0.429392D+01
   aniso      0.247415D+01      0.366631D+00      0.407932D+00
   xx         0.261169D+02      0.387012D+01      0.430609D+01
   yx         0.509240D+00      0.754616D-01      0.839624D-01
   yy         0.254549D+02      0.377203D+01      0.419695D+01
   zx        -0.171460D-01     -0.254078D-02     -0.282700D-02
   zy        -0.121363D+01     -0.179841D+00     -0.200100D+00
   zz         0.265574D+02      0.393541D+01      0.437873D+01

 First dipole hyperpolarizability, Beta (input orientation).
 ||, _|_  parallel and perpendicular components, (z) with respect to z axis,
 vector components x,y,z.  Values do not include the 1/n! factor of 1/2.
 (esu units = statvolt**-1 cm**4 , SI units = C**3 m**3 J**-2)
 Beta(0;0,0):
               (au)            (10**-30 esu)      (10**-50 SI)
   || (z)     0.794850D+01      0.686688D-01      0.254857D-01
   _|_(z)     0.264950D+01      0.228896D-01      0.849525D-02
   x         -0.145807D+03     -0.125966D+01     -0.467509D+00
   y         -0.185587D+03     -0.160333D+01     -0.595060D+00
   z          0.397425D+02      0.343344D+00      0.127429D+00
   ||         0.478672D+02      0.413535D+00      0.153480D+00
   xxx       -0.211404D+02     -0.182637D+00     -0.677838D-01
   xxy       -0.130791D+02     -0.112993D+00     -0.419364D-01
   yxy       -0.163471D+02     -0.141226D+00     -0.524146D-01
   yyy       -0.439556D+02     -0.379742D+00     -0.140938D+00
   xxz        0.711720D+01      0.614871D-01      0.228203D-01
   yxz        0.784788D+01      0.677995D-01      0.251631D-01
   yyz        0.169302D+02      0.146264D+00      0.542843D-01
   zxz       -0.111148D+02     -0.960231D-01     -0.356380D-01
   zyz       -0.482771D+01     -0.417076D-01     -0.154794D-01
   zzz       -0.107999D+02     -0.933028D-01     -0.346284D-01

 ----------------------------------------------------------------------

 Dipole orientation:
     6          1.44481164          0.35969468         -1.16436161
     6          3.63842515          1.08699163         -2.86708927
     8          4.45299708         -0.91818078         -4.39534789
     1          0.79561527          1.98557784         -0.06892525
     1          2.00066352         -1.11858765          0.17135687
     1         -0.13349412         -0.35279601         -2.28583045
     1          5.20453294          1.83102510         -1.73246289
     1          3.06415107          2.58517438         -4.15906297
     1          5.06421535         -2.23610726         -3.35468622

 Electric dipole moment (dipole orientation):
 (Debye = 10**-18 statcoulomb cm , SI units = C m)
                  (au)            (Debye)         (10**-30 SI)
   Tot        0.663973D+00      0.168765D+01      0.562940D+01
   x          0.000000D+00      0.000000D+00      0.000000D+00
   y          0.000000D+00      0.000000D+00      0.000000D+00
   z          0.663973D+00      0.168765D+01      0.562940D+01

 Dipole polarizability, Alpha (dipole orientation).
 (esu units = cm**3 , SI units = C**2 m**2 J**-1)
 Alpha(0;0):
               (au)            (10**-24 esu)      (10**-40 SI)
   iso        0.260431D+02      0.385919D+01      0.429392D+01
   aniso      0.247415D+01      0.366631D+00      0.407932D+00
   xx         0.256173D+02      0.379609D+01      0.422372D+01
   yx        -0.872293D+00     -0.129261D+00     -0.143822D+00
   yy         0.269288D+02      0.399044D+01      0.443996D+01
   zx        -0.822318D+00     -0.121855D+00     -0.135582D+00
   zy        -0.121112D+00     -0.179470D-01     -0.199687D-01
   zz         0.255831D+02      0.379103D+01      0.421809D+01

 First dipole hyperpolarizability, Beta (dipole orientation).
 ||, _|_  parallel and perpendicular components, (z) with respect to z axis,
 vector components x,y,z.  Values do not include the 1/n! factor of 1/2.
 (esu units = statvolt**-1 cm**4 , SI units = C**3 m**3 J**-2)
 Beta(0;0,0):
               (au)            (10**-30 esu)      (10**-50 SI)
   || (z)     0.389658D+02      0.336634D+00      0.124938D+00
   _|_(z)     0.129886D+02      0.112211D+00      0.416461D-01
   x         -0.816208D+02     -0.705140D+00     -0.261706D+00
   y          0.112523D+03      0.972113D+00      0.360790D+00
   z          0.194829D+03      0.168317D+01      0.624692D+00
   ||         0.478672D+02      0.413535D+00      0.153480D+00
   xxx       -0.136071D+02     -0.117555D+00     -0.436292D-01
   xxy        0.496310D+01      0.428773D-01      0.159135D-01
   yxy       -0.249050D+01     -0.215160D-01     -0.798546D-02
   yyy        0.170740D+02      0.147506D+00      0.547453D-01
   xxz        0.111090D+02      0.959734D-01      0.356196D-01
   yxz       -0.963328D+01     -0.832240D-01     -0.308878D-01
   yyz        0.282435D+02      0.244002D+00      0.905589D-01
   zxz       -0.111093D+02     -0.959761D-01     -0.356206D-01
   zyz        0.154707D+02      0.133655D+00      0.496047D-01
   zzz        0.255904D+02      0.221081D+00      0.820521D-01

 ----------------------------------------------------------------------
 1\1\GINC-NODE681\Freq\RHF\CC-pVDZ\C2H6O1\THEOB\16-Dec-2021\0\\#P Geom=
 AllCheck Guess=TCheck SCRF=Check GenChk RHF/CC-pVDZ Freq\\Ethanol.xyz\
 \0,1\C,0.9959072181,0.0730029164,-0.0571749048\C,2.5143360819,0.095217
 671,-0.0941400984\O,3.0228727255,1.2445103575,-0.7156432002\H,0.633262
 1931,-0.8091250837,0.4763432263\H,0.5788299927,0.0456800499,-1.0687991
 14\H,0.6131188514,0.9650290364,0.4424964892\H,2.8927920952,-0.81108405
 46,-0.5817203469\H,2.9132563413,0.1024382968,0.9203165281\H,2.74440450
 1,1.2567608102,-1.6192885793\\Version=ES64L-G16RevA.03\State=1-A\HF=-1
 54.0927193\RMSD=8.623e-10\RMSF=2.811e-05\ZeroPoint=0.0851659\Thermal=0
 .0892748\Dipole=-0.3944755,-0.4490386,-0.2891602\DipoleDeriv=-0.072779
 4,-0.0360558,0.0421589,0.0257202,0.114236,0.0128017,0.015504,-0.000902
 1,0.1498174,0.6123401,0.1551397,-0.1421237,0.1365812,0.786626,-0.16275
 23,-0.1499974,-0.1907284,0.5107504,-0.7083312,-0.1396388,0.1984764,-0.
 1777097,-0.8660293,0.2387967,0.2269525,0.2631324,-0.5236781,0.0005431,
 -0.0459772,0.0320578,-0.0795527,-0.0997513,0.1006654,0.0487638,0.09793
 ,0.0028807,-0.0247902,-0.0027254,-0.0477359,0.0049913,0.0568266,0.0001
 676,-0.1031885,-0.0001177,-0.1765687,-0.0126574,0.0410332,0.0231522,0.
 0867346,-0.0872713,-0.0877149,0.034462,-0.0812316,0.0143163,-0.0734552
 ,0.0638919,0.0660547,0.0742711,-0.2031814,-0.0496988,0.0735292,-0.1041
 267,-0.043399,-0.0407436,-0.0128751,-0.074587,-0.0278965,0.0177872,-0.
 0068963,-0.0812182,0.0268223,-0.1574959,0.3198738,-0.0227926,-0.097453
 4,-0.0431395,0.2807576,-0.0453691,-0.0648075,-0.0107781,0.2233768\Pola
 r=26.1168594,0.5092403,25.4549358,-0.017146,-1.2136279,26.5574385\Pola
 rDeriv=-4.700504,-0.2392778,2.8682798,0.6660185,-0.1270263,3.0660383,-
 0.882061,4.1411333,-0.2085159,0.3095062,-4.7710474,0.4737921,0.8395771
 ,0.3759109,-4.6969879,4.4974515,0.128576,4.596003,4.3955749,0.352324,-
 2.078792,-0.6254785,-0.0090513,-2.7319245,1.7542299,-4.4314245,3.13387
 41,-0.533411,4.0419156,0.5088463,-1.2726227,-0.5818843,2.8501969,-4.34
 1941,0.6988363,-6.051154,2.3342561,2.4578244,1.1122,-0.296054,-1.17217
 59,1.895673,0.621065,3.0665009,4.1404541,-0.6892078,-1.5074626,0.33052
 48,0.0977829,-0.5914742,0.4776381,1.8167004,-0.0117317,5.2884055,-1.78
 4807,-2.2808958,-1.4942488,1.3861489,0.720739,-0.8931588,-1.6052111,-2
 .5353118,-5.7059649,0.8395814,2.8506881,-1.3908276,0.9195178,0.7671893
 ,2.089903,-1.7503694,-2.3652776,2.2354053,-1.9358069,-0.0848221,-0.517
 5145,-2.5065839,-0.0458303,-1.6882103,-0.0169316,-1.426305,-0.167326,0
 .0012981,-1.1580478,-0.1811141,-2.2573488,-0.2151656,-0.0168966,-3.128
 7555,-0.1383399,-7.3557818,-1.5899711,2.0557208,-1.4248895,1.133545,-0
 .5425806,-0.8631473,1.8932008,-2.6505139,5.5714687,-0.8545656,2.625875
 3,1.1388465,0.9250289,-0.652278,1.9540277,-1.8044256,2.0855014,1.88571
 99,1.828377,-2.320165,1.3123433,-0.9775215,0.5006104,0.8011556,-1.8929
 115,2.7797557,-7.1718197,0.9190724,-2.1796112,-0.8578133,-1.2248009,0.
 8672805,-1.9402577,1.7922373,-2.1412994,-1.3978865,1.8594079,-0.127250
 5,0.62265,2.4912178,0.0812657,1.802791,0.225501,1.2942055,-0.1475593,-
 0.0060635,1.1834384,0.0233269,2.2373459,0.1839379,0.2489498,3.1791037,
 -0.3039171,7.9014936,-0.4065269,0.1865419,-0.4000283,-1.2712923,0.5940
 493,-1.3892172,-0.0968815,-0.2380402,0.555389,0.0137899,-1.0857485,-0.
 0455817,-0.2644802,-0.1535165,-0.9665733,-0.2600013,2.047652,-7.102205
 \HyperPolar=-21.1404051,-13.0791298,-16.347061,-43.9556048,7.1172024,7
 .8478772,16.9301936,-11.1147834,-4.8277085,-10.7999043\Quadrupole=-1.5
 620968,-0.7700014,2.3320983,-1.1024683,-0.0409535,-0.6642062\PG=C01 [X
 (C2H6O1)]\NImag=0\\0.55291291,-0.00247834,0.64831778,-0.00006476,-0.00
 149279,0.63205215,-0.24280116,0.01780370,-0.00804618,0.57134476,0.0059
 8989,-0.09272470,-0.00391815,-0.02560083,0.61279045,0.00016709,-0.0020
 2808,-0.09856353,0.03771433,0.03454561,0.69605486,-0.01438372,-0.04771
 549,0.02647270,-0.10997051,-0.06036451,0.00329520,0.18453327,-0.007457
 56,-0.01261998,0.01133937,-0.07889515,-0.23003886,0.04393261,0.1299832
 1,0.32747021,0.00342212,0.01001228,-0.00194742,0.03311928,0.08646287,-
 0.14406757,0.13478164,-0.11122349,0.70192088,-0.08825156,-0.07253054,0
 .04471229,-0.00133964,-0.03143095,0.01906951,-0.01130366,-0.00329844,0
 .00198498,0.08999585,-0.07627702,-0.24193643,0.11283042,0.00354740,-0.
 00043906,-0.00111627,-0.00123186,0.00164373,0.00048060,0.08345181,0.25
 848321,0.04689350,0.11302671,-0.12326175,-0.00195640,-0.00032624,-0.00
 176811,0.00066507,0.00006142,0.00173972,-0.05036146,-0.12523957,0.1276
 0727,-0.09433956,-0.00295872,-0.09367597,-0.01268584,-0.00032870,-0.04
 065026,0.00394014,0.00107893,0.00155233,0.00463730,0.00160271,0.011941
 12,0.10096631,-0.00226979,-0.05657568,-0.00805423,-0.00017805,-0.00073
 087,0.00100690,0.00048382,0.00008818,-0.00075628,0.01211638,0.00227061
 ,0.02712012,0.00237661,0.05236889,-0.09640926,-0.00726226,-0.29666167,
 0.00362017,0.00135939,0.00052130,-0.00050931,-0.00190601,0.00280123,-0
 .00604762,-0.00128300,-0.01498759,0.10642871,0.00767961,0.31980168,-0.
 08884932,0.07784545,0.04412968,-0.01229835,0.03592419,0.01898434,0.004
 68432,-0.00157510,-0.00161355,0.00423428,-0.00994320,-0.00722637,0.004
 56139,-0.01195860,-0.00552311,0.09471327,0.08246323,-0.24944206,-0.109
 02451,-0.00269014,-0.00105338,0.00085669,0.00040938,0.00270150,-0.0003
 3044,0.00990061,-0.02069037,-0.01371027,-0.00088777,0.00120815,0.00062
 651,-0.08967817,0.26578738,0.04549729,-0.10901492,-0.11819285,-0.00097
 202,0.00009443,0.00024850,-0.00052591,0.00069582,-0.00027295,-0.007824
 04,0.01509027,0.00979866,0.01207907,-0.02765766,-0.01410169,-0.0487085
 0,0.12026258,0.12055488,-0.01236877,0.03198024,0.02010746,-0.09659869,
 0.07763409,0.04367520,0.00767447,-0.01976080,-0.00533813,0.00104699,-0
 .00085391,0.00027185,0.00185241,-0.00007827,-0.00102968,-0.00853302,-0
 .00020140,-0.00002357,0.10057742,-0.00099545,0.00241089,-0.00143849,0.
 07803010,-0.22552492,-0.09886106,0.00053264,-0.04133014,-0.00244249,0.
 00138776,0.00058762,-0.00031427,0.00020094,-0.00006509,0.00054247,-0.0
 0048044,0.00143111,0.00005778,-0.07934535,0.26073782,-0.00220180,-0.00
 073868,0.00143050,0.04344891,-0.10546647,-0.12823488,-0.00381122,0.025
 58511,0.01184770,0.00030073,-0.00003079,-0.00007439,0.00075056,0.00077
 219,0.00105803,0.00027484,0.00068058,0.00157337,-0.05081148,0.10613063
 ,0.12449468,-0.01324081,-0.00202137,-0.03668950,-0.10017404,-0.0003741
 0,-0.10197792,0.00689676,-0.00347021,0.01863396,0.00121527,-0.00058311
 ,0.00053738,-0.00829689,0.00008187,0.00041860,0.00177523,0.00061808,0.
 00034518,0.00636296,0.00064614,0.01283992,0.10570445,0.00084735,0.0013
 7661,0.00009655,-0.00487016,-0.06051337,-0.02285254,0.00962958,-0.0054
 0132,0.04295633,0.00000856,0.00016475,-0.00028565,-0.00017635,0.001218
 41,0.00062840,-0.00022255,0.00021352,0.00092767,-0.01079757,0.00110013
 ,-0.02693332,0.00775870,0.06770243,0.00211023,-0.00072240,0.00335184,-
 0.09741503,-0.00882597,-0.30370801,-0.00340663,0.00707993,-0.02062995,
 -0.00111527,-0.00044427,0.00042847,0.00086632,-0.00015357,0.00183193,-
 0.00051944,0.00054685,0.00068112,-0.00624867,-0.00247015,-0.01428853,0
 .10376502,0.00142837,0.33120688,0.00132199,0.00007507,0.00305429,0.004
 52347,-0.00144907,0.01972250,-0.07207108,-0.01660489,-0.18654263,-0.00
 023483,0.00028719,-0.00076468,-0.00063525,-0.00057396,-0.00094851,-0.0
 0028782,0.00006618,0.00013250,-0.00001377,0.00002366,-0.00079047,-0.00
 024293,-0.00217756,0.00196348,0.06764021,0.00017769,0.00119356,-0.0003
 3818,0.01285314,-0.00176530,0.04451613,-0.03172677,-0.04251334,-0.0251
 5938,0.00039481,-0.00008407,-0.00033223,-0.00090765,0.00021740,-0.0003
 8510,0.00008842,-0.00015585,-0.00045597,0.00142298,0.00065256,0.000000
 75,-0.00265599,-0.00586116,0.00356121,0.02035337,0.04831621,0.00058560
 ,-0.00177985,0.00179275,-0.00951306,-0.00392547,-0.02048255,-0.1569615
 4,0.02443523,-0.55139164,-0.00071912,-0.00028739,0.00051772,0.00070812
 ,0.00004293,-0.00026322,0.00020211,0.00009200,-0.00028905,-0.00060299,
 -0.00120441,0.00219351,0.00212736,0.00403419,0.00112624,0.16417352,-0.
 02140721,0.56679624\\-0.00002705,-0.00005968,0.00002121,0.00004890,0.0
 0009415,-0.00004648,0.00001188,-0.00002887,0.00002464,-0.00000155,0.00
 000306,0.00000497,-0.00000100,0.00001599,-0.00000654,-0.00000539,0.000
 00644,-0.00000498,-0.00001226,-0.00002351,0.00000666,-0.00000705,-0.00
 001044,0.00001043,-0.00000647,0.00000284,-0.00000990\\\@


 IF I AM NOT FOR MYSELF, WHO WILL BE?
 BUT IF I AM ONLY FOR MYSELF, WHAT AM I?
 THOUGH A SEEKER SINCE MY BIRTH,
 HERE IS ALL I'VE LEARNED ON EARTH,
 THIS IS THE GIST OF WHAT I KNOW:
 GIVE ADVICE AND BUY A FOE.

 PRESSED FOR RULES AND VERITIES,
 ALL I RECOLLECT ARE THESE:
 FEED A COLD TO STARVE A FEVER,
 ARGUE WITH NO TRUE-BELIEVER.
 THINK-TOO-LONG IS NEVER-ACT,
 SCRATCH A MYTH AND FIND A FACT.

 STITCH IN TIME SAVES TWENTY STITCHES,
 GIVE THE RICH TO PLEASE THEM, RICHES.
 GIVE TO LOVE YOU HEARTH AND HALL,
 BUT DO NOT GIVE ADVICE AT ALL.

                                  -- HILLEL
 Job cpu time:       0 days  0 hours  0 minutes 14.6 seconds.
 Elapsed time:       0 days  0 hours  0 minutes  3.9 seconds.
 File lengths (MBytes):  RWF=      9 Int=      0 D2E=      0 Chk=      2 Scr=      1
 Normal termination of Gaussian 16 at Thu Dec 16 11:32:42 2021.
