

     ************************************************************************
     *************** Dalton - An Electronic Structure Program ***************
     ************************************************************************

    This is output from DALTON release Dalton2016.1 (2016)
         ( Web site: http://daltonprogram.org )

   ----------------------------------------------------------------------------

    NOTE:
     
    Dalton is an experimental code for the evaluation of molecular
    properties using (MC)SCF, DFT, CI, and CC wave functions.
    The authors accept no responsibility for the performance of
    the code or for the correctness of the results.
     
    The code (in whole or part) is provided under a licence and
    is not to be reproduced for further distribution without
    the written permission of the authors or their representatives.
     
    See the home page "http://daltonprogram.org" for further information.
     
    If results obtained with this code are published,
    the appropriate citations would be both of:
     
       K. Aidas, C. Angeli, K. L. Bak, V. Bakken, R. Bast,
       L. Boman, O. Christiansen, R. Cimiraglia, S. Coriani,
       P. Dahle, E. K. Dalskov, U. Ekstroem,
       T. Enevoldsen, J. J. Eriksen, P. Ettenhuber, B. Fernandez,
       L. Ferrighi, H. Fliegl, L. Frediani, K. Hald, A. Halkier,
       C. Haettig, H. Heiberg, T. Helgaker, A. C. Hennum,
       H. Hettema, E. Hjertenaes, S. Hoest, I.-M. Hoeyvik,
       M. F. Iozzi, B. Jansik, H. J. Aa. Jensen, D. Jonsson,
       P. Joergensen, J. Kauczor, S. Kirpekar,
       T. Kjaergaard, W. Klopper, S. Knecht, R. Kobayashi, H. Koch,
       J. Kongsted, A. Krapp, K. Kristensen, A. Ligabue,
       O. B. Lutnaes, J. I. Melo, K. V. Mikkelsen, R. H. Myhre,
       C. Neiss, C. B. Nielsen, P. Norman, J. Olsen,
       J. M. H. Olsen, A. Osted, M. J. Packer, F. Pawlowski,
       T. B. Pedersen, P. F. Provasi, S. Reine, Z. Rinkevicius,
       T. A. Ruden, K. Ruud, V. Rybkin, P. Salek, C. C. M. Samson,
       A. Sanchez de Meras, T. Saue, S. P. A. Sauer,
       B. Schimmelpfennig, K. Sneskov, A. H. Steindal,
       K. O. Sylvester-Hvid, P. R. Taylor, A. M. Teale,
       E. I. Tellgren, D. P. Tew, A. J. Thorvaldsen, L. Thoegersen,
       O. Vahtras, M. A. Watson, D. J. D. Wilson, M. Ziolkowski
       and H. Agren,
       "The Dalton quantum chemistry program system",
       WIREs Comput. Mol. Sci. 2014, 4:269–284 (doi: 10.1002/wcms.1172)
     
    and
     
       Dalton, a Molecular Electronic Structure Program,
       Release Dalton2016.1 (2016), see http://daltonprogram.org
   ----------------------------------------------------------------------------

    Authors in alphabetical order (major contribution(s) in parenthesis):

  Kestutis Aidas,           Vilnius University,           Lithuania   (QM/MM)
  Celestino Angeli,         University of Ferrara,        Italy       (NEVPT2)
  Keld L. Bak,              UNI-C,                        Denmark     (AOSOPPA, non-adiabatic coupling, magnetic properties)
  Vebjoern Bakken,          University of Oslo,           Norway      (DALTON; geometry optimizer, symmetry detection)
  Radovan Bast,             UiT The Arctic U. of Norway,  Norway      (DALTON installation and execution frameworks)
  Pablo Baudin,             University of Valencia,       Spain       (Cholesky excitation energies)
  Linus Boman,              NTNU,                         Norway      (Cholesky decomposition and subsystems)
  Ove Christiansen,         Aarhus University,            Denmark     (CC module)
  Renzo Cimiraglia,         University of Ferrara,        Italy       (NEVPT2)
  Sonia Coriani,            University of Trieste,        Italy       (CC module, MCD in RESPONS)
  Janusz Cukras,            University of Trieste,        Italy       (MChD in RESPONS)
  Paal Dahle,               University of Oslo,           Norway      (Parallelization)
  Erik K. Dalskov,          UNI-C,                        Denmark     (SOPPA)
  Thomas Enevoldsen,        Univ. of Southern Denmark,    Denmark     (SOPPA)
  Janus J. Eriksen,         Aarhus University,            Denmark     (Polarizable embedding model, TDA)
  Rasmus Faber,             University of Copenhagen,     Denmark     (Vib.avg. NMR with SOPPA, parallel AO-SOPPA)
  Berta Fernandez,          U. of Santiago de Compostela, Spain       (doublet spin, ESR in RESPONS)
  Lara Ferrighi,            Aarhus University,            Denmark     (PCM Cubic response)
  Heike Fliegl,             University of Oslo,           Norway      (CCSD(R12))
  Luca Frediani,            UiT The Arctic U. of Norway,  Norway      (PCM)
  Bin Gao,                  UiT The Arctic U. of Norway,  Norway      (Gen1Int library)
  Christof Haettig,         Ruhr-University Bochum,       Germany     (CC module)
  Kasper Hald,              Aarhus University,            Denmark     (CC module)
  Asger Halkier,            Aarhus University,            Denmark     (CC module)
  Frederik Beyer Hansen,    University of Copenhagen,     Denmark     (Parallel AO-SOPPA)
  Erik D. Hedegaard,        Univ. of Southern Denmark,    Denmark     (Polarizable embedding model, QM/MM)
  Hanne Heiberg,            University of Oslo,           Norway      (geometry analysis, selected one-electron integrals)
  Trygve Helgaker,          University of Oslo,           Norway      (DALTON; ABACUS, ERI, DFT modules, London, and much more)
  Alf Christian Hennum,     University of Oslo,           Norway      (Parity violation)
  Hinne Hettema,            University of Auckland,       New Zealand (quadratic response in RESPONS; SIRIUS supersymmetry)
  Eirik Hjertenaes,         NTNU,                         Norway      (Cholesky decomposition)
  Maria Francesca Iozzi,    University of Oslo,           Norway      (RPA)
  Brano Jansik              Technical Univ. of Ostrava    Czech Rep.  (DFT cubic response)
  Hans Joergen Aa. Jensen,  Univ. of Southern Denmark,    Denmark     (DALTON; SIRIUS, RESPONS, ABACUS modules, London, and much more)
  Dan Jonsson,              UiT The Arctic U. of Norway,  Norway      (cubic response in RESPONS module)
  Poul Joergensen,          Aarhus University,            Denmark     (RESPONS, ABACUS, and CC modules)
  Maciej Kaminski,          University of Warsaw,         Poland      (CPPh in RESPONS)
  Joanna Kauczor,           Linkoeping University,        Sweden      (Complex polarization propagator (CPP) module)
  Sheela Kirpekar,          Univ. of Southern Denmark,    Denmark     (Mass-velocity & Darwin integrals)
  Wim Klopper,              KIT Karlsruhe,                Germany     (R12 code in CC, SIRIUS, and ABACUS modules)
  Stefan Knecht,            ETH Zurich,                   Switzerland (Parallel CI and MCSCF)
  Rika Kobayashi,           Australian National Univ.,    Australia   (DIIS in CC, London in MCSCF)
  Henrik Koch,              NTNU,                         Norway      (CC module, Cholesky decomposition)
  Jacob Kongsted,           Univ. of Southern Denmark,    Denmark     (Polarizable embedding model, QM/MM)
  Andrea Ligabue,           University of Modena,         Italy       (CTOCD, AOSOPPA)
  Nanna H. List             Univ. of Southern Denmark,    Denmark     (Polarizable embedding model)
  Ola B. Lutnaes,           University of Oslo,           Norway      (DFT Hessian)
  Juan I. Melo,             University of Buenos Aires,   Argentina   (LRESC, Relativistic Effects on NMR Shieldings)
  Kurt V. Mikkelsen,        University of Copenhagen,     Denmark     (MC-SCRF and QM/MM)
  Rolf H. Myhre,            NTNU,                         Norway      (Cholesky, subsystems and ECC2)
  Christian Neiss,          Univ. Erlangen-Nuernberg,     Germany     (CCSD(R12))
  Christian B. Nielsen,     University of Copenhagen,     Denmark     (QM/MM)
  Patrick Norman,           Linkoeping University,        Sweden      (Cubic response and complex frequency response in RESPONS)
  Jeppe Olsen,              Aarhus University,            Denmark     (SIRIUS CI/density modules)
  Jogvan Magnus H. Olsen,   Univ. of Southern Denmark,    Denmark     (Polarizable embedding model, QM/MM)
  Anders Osted,             Copenhagen University,        Denmark     (QM/MM)
  Martin J. Packer,         University of Sheffield,      UK          (SOPPA)
  Filip Pawlowski,          Kazimierz Wielki University,  Poland      (CC3)
  Morten N. Pedersen,       Univ. of Southern Denmark,    Denmark     (Polarizable embedding model)
  Thomas B. Pedersen,       University of Oslo,           Norway      (Cholesky decomposition)
  Patricio F. Provasi,      University of Northeastern,   Argentina   (Analysis of coupling constants in localized orbitals)
  Zilvinas Rinkevicius,     KTH Stockholm,                Sweden      (open-shell DFT, ESR)
  Elias Rudberg,            KTH Stockholm,                Sweden      (DFT grid and basis info)
  Torgeir A. Ruden,         University of Oslo,           Norway      (Numerical derivatives in ABACUS)
  Kenneth Ruud,             UiT The Arctic U. of Norway,  Norway      (DALTON; ABACUS magnetic properties and much more)
  Pawel Salek,              KTH Stockholm,                Sweden      (DALTON; DFT code)
  Claire C. M. Samson       University of Karlsruhe       Germany     (Boys localization, r12 integrals in ERI)
  Alfredo Sanchez de Meras, University of Valencia,       Spain       (CC module, Cholesky decomposition)
  Trond Saue,               Paul Sabatier University,     France      (direct Fock matrix construction)
  Stephan P. A. Sauer,      University of Copenhagen,     Denmark     (SOPPA(CCSD), SOPPA prop., AOSOPPA, vibrational g-factors)
  Bernd Schimmelpfennig,    Forschungszentrum Karlsruhe,  Germany     (AMFI module)
  Kristian Sneskov,         Aarhus University,            Denmark     (Polarizable embedding model, QM/MM)
  Arnfinn H. Steindal,      UiT The Arctic U. of Norway,  Norway      (parallel QM/MM, Polarizable embedding model)
  Casper Steinmann,         Univ. of Southern Denmark,    Denmark     (QFIT, Polarizable embedding model)
  K. O. Sylvester-Hvid,     University of Copenhagen,     Denmark     (MC-SCRF)
  Peter R. Taylor,          VLSCI/Univ. of Melbourne,     Australia   (Symmetry handling ABACUS, integral transformation)
  Andrew M. Teale,          University of Nottingham,     England     (DFT-AC, DFT-D)
  David P. Tew,             University of Bristol,        England     (CCSD(R12))
  Olav Vahtras,             KTH Stockholm,                Sweden      (triplet response, spin-orbit, ESR, TDDFT, open-shell DFT)
  David J. Wilson,          La Trobe University,          Australia   (DFT Hessian and DFT magnetizabilities)
  Hans Agren,               KTH Stockholm,                Sweden      (SIRIUS module, RESPONS, MC-SCRF solvation model)
 --------------------------------------------------------------------------------

     Date and time (Linux)  : Tue Dec 14 17:35:18 2021
     Host name              : node653                                 

 * Work memory size             :   512000000 =  3.815 gigabytes.

 * Directories for basis set searches:
   1) /home/magbuk/bin/UCPH-KVM/test_systems
   2) /home/sauer/source/DALTON-2016/build/basis


Compilation information
-----------------------

 Who compiled             | sauer
 Host                     | sunray
 System                   | Linux-3.16.0-4-amd64
 CMake generator          | Unix Makefiles
 Processor                | x86_64
 64-bit integers          | OFF
 MPI                      | OFF
 Fortran compiler         | /opt/intel/bin/ifort
 Fortran compiler version | ifort (IFORT) 13.0.1 20121010
 C compiler               | /opt/intel/bin/icc
 C compiler version       | icc (ICC) 13.0.1 20121010
 C++ compiler             | /opt/intel/bin/icpc
 C++ compiler version     | icpc (ICC) 13.0.1 20121010
 BLAS                     | /opt/intel/mkl/lib/intel64/libmkl_intel_lp64.so;/o
                          | pt/intel/mkl/lib/intel64/libmkl_sequential.so;/opt
                          | /intel/mkl/lib/intel64/libmkl_core.so;/usr/lib/x86
                          | _64-linux-gnu/libpthread.so;/usr/lib/x86_64-linux-
                          | gnu/libm.so
 LAPACK                   | /opt/intel/mkl/lib/intel64/libmkl_lapack95_lp64.a;
                          | /opt/intel/mkl/lib/intel64/libmkl_intel_lp64.so
 Static linking           | OFF
 Last Git revision        | a10ef0cf7cc62686ecfeaafb7364c9b014fdc003
 Configuration time       | 2016-10-13 16:30:54.213896


   Content of the .dal input file
 ----------------------------------

**DALTON INPUT                                    
.RUN WAVE FUNCTIONS                               
.RUN PROPERTIES                                   
**WAVE FUNCTIONS                                  
.HF                                               
**PROPERTIES                                      
.VIBANA                                           
**END OF DALTON                                   


   Content of the .mol file
 ----------------------------

ATOMBASIS                                                                      
./Ethanol.xyz                                                                  
Hej Magnus                                                                     
Atomtypes=3 Charge=0 NoSymmetry Angstrom                                       
  6.0000     2 Bas=cc-pVDZ Aux=cc-pVDZ-RI                                      
C     1.011100000         0.077080000        -0.059530000                      
C     2.525690000         0.079850000        -0.066400000                      
  8.0000     1 Bas=cc-pVDZ Aux=cc-pVDZ-RI                                      
O     3.005810000         1.243650000        -0.723650000                      
  1.0000     6 Bas=cc-pVDZ Aux=cc-pVDZ-RI                                      
H     0.625160000        -0.805710000         0.457800000                      
H     0.619370000         0.085560000        -1.081990000                      
H     0.626450000         0.974410000         0.436200000                      
H     2.917510000        -0.801850000        -0.582510000                      
H     2.913160000         0.081420000         0.956540000                      
H     2.664530000         1.228020000        -1.634070000                      


       *******************************************************************
       *********** Output from DALTON general input processing ***********
       *******************************************************************

 --------------------------------------------------------------------------------
   Overall default print level:    0
   Print level for DALTON.STAT:    1

    HERMIT 1- and 2-electron integral sections will be executed
    "Old" integral transformation used (limited to max 255 basis functions)
    Wave function sections will be executed (SIRIUS module)
    Static molecular property section will be executed (ABACUS module)
 --------------------------------------------------------------------------------


   ****************************************************************************
   *************** Output of molecule and basis set information ***************
   ****************************************************************************


    The two title cards from your ".mol" input:
    ------------------------------------------------------------------------
 1: ./Ethanol.xyz                                                           
 2: Hej Magnus                                                              
    ------------------------------------------------------------------------

  Coordinates are entered in Angstrom and converted to atomic units.
          - Conversion factor : 1 bohr = 0.52917721 A

  Atomic type no.    1
  --------------------
  Nuclear charge:   6.00000
  Number of symmetry independent centers:    2
  Number of basis sets to read;    2
  The basis set is "cc-pVDZ Aux=cc-pVDZ-RI" from the basis set library.
  Basis set file used for this atomic type with Z =   6 :
     "/home/sauer/source/DALTON-2016/build/basis/cc-pVDZ"

  Atomic type no.    2
  --------------------
  Nuclear charge:   8.00000
  Number of symmetry independent centers:    1
  Number of basis sets to read;    2
  The basis set is "cc-pVDZ Aux=cc-pVDZ-RI" from the basis set library.
  Basis set file used for this atomic type with Z =   8 :
     "/home/sauer/source/DALTON-2016/build/basis/cc-pVDZ"

  Atomic type no.    3
  --------------------
  Nuclear charge:   1.00000
  Number of symmetry independent centers:    6
  Number of basis sets to read;    2
  The basis set is "cc-pVDZ Aux=cc-pVDZ-RI" from the basis set library.
  Basis set file used for this atomic type with Z =   1 :
     "/home/sauer/source/DALTON-2016/build/basis/cc-pVDZ"


                         SYMGRP: Point group information
                         -------------------------------

@    Point group: C1 


                                 Isotopic Masses
                                 ---------------

                           C          12.000000
                           C          12.000000
                           O          15.994915
                           H           1.007825
                           H           1.007825
                           H           1.007825
                           H           1.007825
                           H           1.007825
                           H           1.007825

                       Total mass:    46.041865 amu
                       Natural abundance:  97.490 %

 Center-of-mass coordinates (a.u.):    4.144032    0.925249   -0.596990


  Atoms and basis sets
  --------------------

  Number of atom types :    3
  Total number of atoms:    9

  label    atoms   charge   prim   cont     basis
  ----------------------------------------------------------------------
  C           2    6.0000    26    14      [9s4p1d|3s2p1d]                                    
  O           1    8.0000    26    14      [9s4p1d|3s2p1d]                                    
  H           6    1.0000     7     5      [4s1p|2s1p]                                        
  ----------------------------------------------------------------------
  total:      9   26.0000   120    72
  ----------------------------------------------------------------------
  Spherical harmonic basis used.

  Threshold for neglecting AO integrals:  1.00D-12


  Cartesian Coordinates (a.u.)
  ----------------------------

  Total number of coordinates:   27
  C       :     1  x   1.9107020850    2  y   0.1456600897    3  z  -0.1124953962
  C       :     4  x   4.7728623766    5  y   0.1508946311    6  z  -0.1254778147
  O       :     7  x   5.6801576838    8  y   2.3501578953    9  z  -1.3675003104
  H       :    10  x   1.1813811843   11  y  -1.5225712362   12  z   0.8651166200
  H       :    13  x   1.1704396700   14  y   0.1616849673   15  z  -2.0446647700
  H       :    16  x   1.1838189310   17  y   1.8413680335   18  z   0.8242985357
  H       :    19  x   5.5132948669   20  y  -1.5152768933   21  z  -1.1007843651
  H       :    22  x   5.5050745583   23  y   0.1538615011   24  z   1.8075986276
  H       :    25  x   5.0352319518   26  y   2.3206214760   27  z  -3.0879447691


   Interatomic separations (in Angstrom):
   --------------------------------------

            C           C           O           H           H           H     
            ------      ------      ------      ------      ------      ------
 C     :    0.000000
 C     :    1.514608    0.000000
 O     :    2.404331    1.420184    0.000000
 H     :    1.093571    2.161253    3.356068    0.000000
 H     :    1.094965    2.159980    2.676691    1.779143    0.000000
 H     :    1.094945    2.158693    2.660657    1.780252    1.759263    0.000000
 H     :    2.163429    1.094206    2.052264    2.517365    2.513648    3.072755
 H     :    2.156444    1.093865    2.045092    2.504134    3.068728    2.509428
 H     :    2.556887    1.948117    0.972410    3.559636    2.406800    2.916180

            H           H           H     
            ------      ------      ------
 H     :    0.000000
 H     :    1.774503    0.000000
 H     :    2.300033    2.843900    0.000000


  Max    interatomic separation is    3.5596 Angstrom (    6.7267 Bohr)
  between atoms    9 and    4, "H     " and "H     ".

  Min HX interatomic separation is    0.9724 Angstrom (    1.8376 Bohr)

  Min YX interatomic separation is    1.4202 Angstrom (    2.6838 Bohr)


  Bond distances (Angstrom):
  --------------------------

                  atom 1     atom 2       distance
                  ------     ------       --------
  bond distance:  C          C            1.514608
  bond distance:  O          C            1.420184
  bond distance:  H          C            1.093571
  bond distance:  H          C            1.094965
  bond distance:  H          C            1.094945
  bond distance:  H          C            1.094206
  bond distance:  H          C            1.093865
  bond distance:  H          O            0.972410


  Bond angles (degrees):
  ----------------------

                  atom 1     atom 2     atom 3         angle
                  ------     ------     ------         -----
  bond angle:     C          C          H            110.888
  bond angle:     C          C          H            110.702
  bond angle:     C          C          H            110.600
  bond angle:     H          C          H            108.768
  bond angle:     H          C          H            108.869
  bond angle:     H          C          H            106.902
  bond angle:     C          C          O            109.978
  bond angle:     C          C          H            111.023
  bond angle:     C          C          H            110.486
  bond angle:     O          C          H            108.722
  bond angle:     O          C          H            108.171
  bond angle:     H          C          H            108.385
  bond angle:     C          O          H            107.546




 Principal moments of inertia (u*A**2) and principal axes
 --------------------------------------------------------

   IA      15.174894          0.828122    0.477066   -0.294314
   IB      52.969915         -0.559862    0.677977   -0.476342
   IC      60.728626         -0.027709    0.559245    0.828539


 Rotational constants
 --------------------

               A                   B                   C

          33303.6263           9540.8687           8321.9239 MHz
            1.110889            0.318249            0.277590 cm-1


@  Nuclear repulsion energy :   82.024065349357 Hartree


                     .---------------------------------------.
                     | Starting in Integral Section (HERMIT) |
                     `---------------------------------------'



 ***************************************************************************************
 ****************** Output from **INTEGRALS input processing (HERMIT) ******************
 ***************************************************************************************


 - Using defaults, no **INTEGRALS input found

 Default print level:        1

 * Nuclear model: Point charge

 Calculation of one- and two-electron Hamiltonian integrals.

 Center of mass  (bohr):      4.144031521145      0.925248919173     -0.596989762531
 Operator center (bohr):      0.000000000000      0.000000000000      0.000000000000
 Gauge origin    (bohr):      0.000000000000      0.000000000000      0.000000000000
 Dipole origin   (bohr):      0.000000000000      0.000000000000      0.000000000000


     ************************************************************************
     ************************** Output from HERINT **************************
     ************************************************************************


 Threshold for neglecting two-electron integrals:  1.00D-12
 HERMIT - Number of two-electron integrals written:     3438821 ( 99.5% )
 HERMIT - Megabytes written:                             39.380

  Time used in TWOINT     is       1.69 seconds
  Total CPU  time used in HERMIT:   1.82 seconds
  Total wall time used in HERMIT:   1.82 seconds


                        .----------------------------------.
                        | End of Integral Section (HERMIT) |
                        `----------------------------------'



                   .--------------------------------------------.
                   | Starting in Wave Function Section (SIRIUS) |
                   `--------------------------------------------'


 *** Output from Huckel module :

     Using EWMO model:          T
     Using EHT  model:          F
     Number of Huckel orbitals each symmetry:   21

 EWMO - Energy Weighted Maximum Overlap - is a Huckel type method,
        which normally is better than Extended Huckel Theory.
 Reference: Linderberg and Ohrn, Propagators in Quantum Chemistry (Wiley, 1973)

 Huckel EWMO eigenvalues for symmetry :  1
          -20.684732     -11.354120     -11.348050      -1.855220      -1.404282
           -1.089292      -0.891713      -0.742681      -0.674745      -0.612968
           -0.565324      -0.493247      -0.468582      -0.233923      -0.176539
           -0.133896      -0.127474      -0.126197      -0.117270      -0.112503
           -0.109542

 **********************************************************************
 *SIRIUS* a direct, restricted step, second order MCSCF program       *
 **********************************************************************

 
     Date and time (Linux)  : Tue Dec 14 17:35:21 2021
     Host name              : node653                                 

 Title lines from ".mol" input file:
     ./Ethanol.xyz                                                           
     Hej Magnus                                                              

 Print level on unit LUPRI =   2 is   0
 Print level on unit LUW4  =   2 is   5

@    Restricted, closed shell Hartree-Fock calculation.

 Initial molecular orbitals are obtained according to
 ".MOSTART EWMO  " input option

     Wave function specification
     ============================
@    Wave function type        --- HF ---
@    Number of closed shell electrons          26
@    Number of electrons in active shells       0
@    Total charge of the molecule               0

@    Spin multiplicity and 2 M_S                1         0
@    Total number of symmetries                 1 (point group: C1 )
@    Reference state symmetry                   1 (irrep name : A  )

     Orbital specifications
     ======================
@    Abelian symmetry species          All |    1
@                                          |  A  
                                       --- |  ---
@    Occupied SCF orbitals              13 |   13
@    Secondary orbitals                 59 |   59
@    Total number of orbitals           72 |   72
@    Number of basis functions          72 |   72

     Optimization information
     ========================
@    Number of configurations                 1
@    Number of orbital rotations            767
     ------------------------------------------
@    Total number of variables              768

     Maximum number of Fock   iterations      0
     Maximum number of DIIS   iterations     60
     Maximum number of QC-SCF iterations     60
     Threshold for SCF convergence     1.00D-05


 ***********************************************
 ***** DIIS acceleration of SCF iterations *****
 ***********************************************

 C1-DIIS algorithm; max error vectors =    8

 Iter      Total energy        Error norm    Delta(E)  DIIS dim.
 -----------------------------------------------------------------------------
     (Precalculated two-electron integrals are transformed to P-supermatrix elements.
      Threshold for discarding integrals :  1.00D-12 )
  Time used in FORMSUP    is       0.20 seconds
@  1    -153.502311885        2.90182D+00   -1.54D+02    1
      Virial theorem: -V/T =      2.007708
@      MULPOP C       0.42; C       0.86; O      -0.68; H      -0.12; H      -0.14; H      -0.15; H      -0.21; H      -0.21; H       0.24; 
   1  Level shift: doubly occupied orbital energies shifted by -2.00D-01
 -----------------------------------------------------------------------------
@  2    -154.034448308        9.63368D-01   -5.32D-01    2
      Virial theorem: -V/T =      2.002208
@      MULPOP C      -0.17; C      -0.02; O      -0.20; H       0.06; H       0.06; H       0.07; H       0.04; H       0.05; H       0.10; 
   2  Level shift: doubly occupied orbital energies shifted by -1.00D-01
 -----------------------------------------------------------------------------
@  3    -154.087157029        2.13635D-01   -5.27D-02    3
      Virial theorem: -V/T =      2.000452
@      MULPOP C      -0.08; C       0.19; O      -0.39; H       0.03; H       0.02; H       0.04; H       0.01; H       0.03; H       0.15; 
   3  Level shift: doubly occupied orbital energies shifted by -2.50D-02
 -----------------------------------------------------------------------------
@  4    -154.090587823        7.20611D-02   -3.43D-03    4
      Virial theorem: -V/T =      2.001784
@      MULPOP C      -0.08; C       0.17; O      -0.38; H       0.03; H       0.02; H       0.04; H       0.01; H       0.03; H       0.15; 
   4  Level shift: doubly occupied orbital energies shifted by -1.25D-02
 -----------------------------------------------------------------------------
@  5    -154.090924577        1.52979D-02   -3.37D-04    5
      Virial theorem: -V/T =      2.000872
@      MULPOP C      -0.09; C       0.17; O      -0.39; H       0.03; H       0.02; H       0.04; H       0.02; H       0.04; H       0.16; 
 -----------------------------------------------------------------------------
@  6    -154.090950513        3.34907D-03   -2.59D-05    6
      Virial theorem: -V/T =      2.000948
@      MULPOP C      -0.08; C       0.17; O      -0.40; H       0.03; H       0.02; H       0.04; H       0.02; H       0.04; H       0.16; 
 -----------------------------------------------------------------------------
@  7    -154.090952305        8.81120D-04   -1.79D-06    7
      Virial theorem: -V/T =      2.000935
@      MULPOP C      -0.08; C       0.17; O      -0.40; H       0.03; H       0.02; H       0.04; H       0.01; H       0.04; H       0.16; 
 -----------------------------------------------------------------------------
@  8    -154.090952438        2.54841D-04   -1.33D-07    8
      Virial theorem: -V/T =      2.000937
@      MULPOP C      -0.08; C       0.17; O      -0.40; H       0.03; H       0.02; H       0.04; H       0.01; H       0.04; H       0.16; 
 -----------------------------------------------------------------------------
@  9    -154.090952448        7.66499D-05   -9.69D-09    8
      Virial theorem: -V/T =      2.000937
@      MULPOP C      -0.08; C       0.17; O      -0.40; H       0.03; H       0.02; H       0.04; H       0.01; H       0.04; H       0.16; 
 -----------------------------------------------------------------------------
@ 10    -154.090952449        2.25675D-05   -9.87D-10    8
      Virial theorem: -V/T =      2.000937
@      MULPOP C      -0.08; C       0.17; O      -0.40; H       0.03; H       0.02; H       0.04; H       0.01; H       0.04; H       0.16; 
 -----------------------------------------------------------------------------
@ 11    -154.090952449        6.20402D-06   -1.00D-10    8

@ *** DIIS converged in  11 iterations !
@     Converged SCF energy, gradient:   -154.090952448863    6.20D-06
    - total time used in SIRFCK :              0.00 seconds


 *** SCF orbital energy analysis ***

 Only the 20 lowest virtual orbital energies printed in each symmetry.

 Number of electrons :   26
 Orbital occupations :   13

 Sym       Hartree-Fock orbital energies

1 A     -20.54718911   -11.27603475   -11.22386099    -1.34952277    -1.01002734
         -0.84361078    -0.67884003    -0.62075236    -0.60260980    -0.53878675
         -0.52299686    -0.47559823    -0.43514869     0.17864010     0.21714575
          0.23380030     0.25532044     0.26685193     0.28647305     0.38145211
          0.40069587     0.59603102     0.61502507     0.66562188     0.72939347
          0.75018323     0.81035303     0.85028416     0.88181402     0.88686081
          0.89711004     0.91038117     0.92954870

    E(LUMO) :     0.17864010 au (symmetry 1)
  - E(HOMO) :    -0.43514869 au (symmetry 1)
  ------------------------------------------
    gap     :     0.61378879 au

 --- Writing SIRIFC interface file

 CPU and wall time for SCF :       0.360       0.359


                       .-----------------------------------.
                       | --- Final results from SIRIUS --- |
                       `-----------------------------------'


@    Spin multiplicity:           1
@    Spatial symmetry:            1 ( irrep  A   in C1  )
@    Total charge of molecule:    0

@    Final HF energy:            -154.090952448863                 
@    Nuclear repulsion:            82.024065349357
@    Electronic energy:          -236.115017798221

@    Final gradient norm:           0.000006204017

 
     Date and time (Linux)  : Tue Dec 14 17:35:21 2021
     Host name              : node653                                 

File label for MO orbitals:  14Dec21   FOCKDIIS

 (Only coefficients > 0.0100 are printed.)

 Molecular orbitals for symmetry species 1  (A  )
 ------------------------------------------------

    Orbital         4        5        6        7        8        9       10
   1 C   :1s     0.0034   0.0205  -0.0130   0.0012  -0.0032   0.0028  -0.0003
   2 C   :1s    -0.0629  -0.6112   0.4162  -0.0569   0.0008  -0.0441  -0.0110
   3 C   :1s     0.0074   0.1774  -0.1077   0.0018   0.0218   0.0061  -0.0084
   4 C   :2px   -0.0381  -0.0950  -0.1712   0.1041  -0.0695   0.3468  -0.2480
   5 C   :2py   -0.0083   0.0066   0.0141  -0.1447  -0.1929   0.2122   0.4500
   6 C   :2pz    0.0063  -0.0025  -0.0174  -0.1154   0.3099   0.1295   0.1955
   7 C   :2px    0.0033   0.0336   0.0349  -0.0235   0.0217  -0.0598   0.0252
   8 C   :2py   -0.0029   0.0034   0.0006   0.0332   0.0333  -0.0208  -0.0636
   9 C   :2pz   -0.0022  -0.0029   0.0013   0.0262  -0.0590  -0.0241  -0.0107
  10 C   :3d2-  -0.0018   0.0017   0.0008  -0.0066  -0.0002  -0.0029  -0.0109
  11 C   :3d1-  -0.0014  -0.0004  -0.0011  -0.0036  -0.0070   0.0054   0.0157
  12 C   :3d0    0.0030   0.0061   0.0068  -0.0008  -0.0065  -0.0118  -0.0001
  14 C   :3d2+  -0.0068  -0.0120  -0.0120   0.0065  -0.0080   0.0140  -0.0140
  15 C   :1s     0.0087   0.0128   0.0057  -0.0030  -0.0016   0.0013  -0.0008
  16 C   :1s    -0.2853  -0.4723  -0.5342   0.0997  -0.0328   0.1179  -0.0036
  17 C   :1s     0.1342   0.1080   0.1629  -0.0124   0.0074  -0.0258  -0.0082
  18 C   :2px   -0.0368   0.1530  -0.1836  -0.0584   0.0768  -0.3457   0.2788
  19 C   :2py   -0.1238   0.0506   0.0340  -0.3687  -0.2428   0.0956  -0.0244
  20 C   :2pz    0.0782  -0.0359  -0.0464  -0.1984   0.3905   0.2221   0.0037
  21 C   :2px    0.0137  -0.0236   0.0432   0.0009   0.0039   0.0607  -0.0624
  22 C   :2py    0.0515  -0.0137   0.0018   0.0691   0.0590  -0.0343  -0.0135
  23 C   :2pz   -0.0227   0.0140   0.0066   0.0265  -0.0640  -0.0425  -0.0122
  24 C   :3d2-  -0.0115   0.0012  -0.0056  -0.0154  -0.0030  -0.0203  -0.0136
  25 C   :3d1-   0.0226  -0.0033  -0.0008   0.0091   0.0206  -0.0025  -0.0007
  26 C   :3d0    0.0031   0.0093  -0.0039   0.0129   0.0111   0.0050   0.0153
  27 C   :3d1+   0.0081  -0.0023   0.0014   0.0006   0.0010   0.0114  -0.0119
  28 C   :3d2+   0.0118  -0.0174   0.0124   0.0093   0.0128   0.0099  -0.0011
  29 O   :1s     0.0106  -0.0006   0.0014  -0.0002  -0.0001  -0.0003   0.0001
  30 O   :1s    -0.8249   0.2367   0.1356  -0.1570   0.1114  -0.1092  -0.1120
  31 O   :1s     0.0556  -0.0018  -0.0198  -0.0711   0.0333  -0.0445  -0.0519
  32 O   :2px    0.0684   0.0369  -0.0280  -0.0620   0.2805  -0.4269   0.1152
  33 O   :2py    0.0887   0.0751   0.1913  -0.0493   0.3380   0.2044  -0.3025
  34 O   :2pz    0.0302  -0.0988  -0.2269  -0.5264  -0.1812  -0.1760  -0.2630
  35 O   :2px   -0.0213  -0.0006   0.0144   0.0123   0.0033  -0.0001   0.0053
  36 O   :2py   -0.0133  -0.0031  -0.0068  -0.0117  -0.0071  -0.0089  -0.0205
  37 O   :2pz   -0.0337   0.0252   0.0384   0.0572   0.0212   0.0283   0.0061
  38 O   :3d2-  -0.0053  -0.0044  -0.0039   0.0007  -0.0128   0.0055  -0.0002
  39 O   :3d1-   0.0042   0.0033   0.0072   0.0115   0.0018   0.0010   0.0041
  40 O   :3d0   -0.0006   0.0039   0.0060   0.0046   0.0114   0.0049   0.0023
  41 O   :3d1+  -0.0003   0.0031   0.0052   0.0110   0.0028   0.0046   0.0043
  42 O   :3d2+   0.0036   0.0023   0.0083  -0.0006   0.0040   0.0121  -0.0079
  43 H   :1s    -0.0123  -0.2280   0.2224  -0.0079   0.3153  -0.2548  -0.2043
  44 H   :1s     0.0035   0.1049  -0.0826  -0.0004  -0.0954   0.0767   0.0461
  46 H   :2py   -0.0011  -0.0159   0.0134  -0.0030   0.0112  -0.0074   0.0001
  48 H   :1s    -0.0170  -0.2215   0.2525   0.0409  -0.2489  -0.2645  -0.1001
  49 H   :1s     0.0083   0.0950  -0.0995  -0.0090   0.0697   0.0843   0.0349
  52 H   :2pz   -0.0014  -0.0172   0.0169   0.0003  -0.0076  -0.0127  -0.0007
  53 H   :1s    -0.0133  -0.2199   0.2359  -0.2136   0.0129   0.0795   0.5627
  54 H   :1s     0.0071   0.0996  -0.0939   0.0689   0.0019  -0.0306  -0.1625
  56 H   :2py    0.0010   0.0152  -0.0147   0.0090  -0.0052   0.0004  -0.0159
  58 H   :1s    -0.0669  -0.1666  -0.2870   0.3741   0.0226  -0.2235   0.1155
  59 H   :1s     0.0326   0.0765   0.1147  -0.1327  -0.0005   0.0549  -0.0237
  61 H   :2py   -0.0082  -0.0101  -0.0153   0.0118  -0.0021  -0.0081   0.0029
  62 H   :2pz   -0.0028  -0.0075  -0.0108   0.0082   0.0064  -0.0037   0.0035
  63 H   :1s    -0.0656  -0.1724  -0.3122  -0.1159   0.3474   0.1515   0.1143
  64 H   :1s     0.0280   0.0755   0.1265   0.0466  -0.1190  -0.0517  -0.0276
  67 H   :2pz    0.0073   0.0128   0.0200   0.0038  -0.0131  -0.0031  -0.0059
  68 H   :1s    -0.2856   0.1492   0.2521   0.4393   0.1339   0.2725   0.1691
  69 H   :1s     0.1378  -0.0616  -0.0995  -0.1622  -0.0208  -0.0959  -0.0586
  70 H   :2px   -0.0114   0.0063   0.0068   0.0120   0.0129  -0.0044   0.0096
  72 H   :2pz   -0.0341   0.0141   0.0207   0.0291   0.0051   0.0194   0.0065

    Orbital        11       12       13       14       15       16       17
   1 C   :1s    -0.0017  -0.0002  -0.0012  -0.0551   0.0303   0.0668   0.0186
   2 C   :1s    -0.0204  -0.0615  -0.1178   0.0776  -0.0424  -0.0955  -0.0193
   3 C   :1s     0.0109  -0.0176  -0.0395   1.2163  -0.8489  -1.6848  -0.5297
   4 C   :2px   -0.0463  -0.2493  -0.3449  -0.1664   0.0746   0.0744   0.0273
   5 C   :2py    0.2326  -0.2120  -0.0102  -0.0214   0.0400  -0.0944   0.2735
   6 C   :2pz   -0.4463  -0.1644   0.0903  -0.0745  -0.2042   0.0254   0.1236
   7 C   :2px    0.0159   0.0317   0.0529  -0.3453   0.1217   0.0581  -0.0159
   8 C   :2py   -0.0382   0.0547   0.0273   0.0446   0.0764  -0.1693   0.6435
   9 C   :2pz    0.0572   0.0348  -0.0502  -0.1686  -0.3530   0.0769   0.1627
  10 C   :3d2-  -0.0096   0.0147  -0.0045  -0.0047  -0.0084  -0.0043  -0.0089
  11 C   :3d1-   0.0082  -0.0094  -0.0006  -0.0002   0.0079  -0.0033   0.0155
  12 C   :3d0    0.0161   0.0131   0.0023   0.0062   0.0112  -0.0069  -0.0049
  13 C   :3d1+   0.0174   0.0149  -0.0068   0.0072   0.0111   0.0015   0.0095
  14 C   :3d2+   0.0065  -0.0049  -0.0152  -0.0022   0.0069   0.0093   0.0001
  15 C   :1s    -0.0014   0.0013  -0.0016  -0.0468   0.0181  -0.0593  -0.0069
  16 C   :1s     0.0044   0.0051  -0.0297   0.0044  -0.1408   0.0838  -0.0280
  17 C   :1s     0.0009  -0.0376  -0.0140   1.0627  -0.6729   1.5739   0.1700
  18 C   :2px    0.0662   0.2553   0.3124   0.0812  -0.1405   0.0187  -0.0633
  19 C   :2py   -0.1819   0.2705  -0.1693  -0.1642  -0.0498  -0.2113   0.0956
  20 C   :2pz    0.2409   0.2966  -0.1262   0.0299  -0.1489   0.0366   0.2930
  21 C   :2px    0.0038  -0.0671  -0.0723   0.1486  -0.2794   0.0541  -0.1218
  22 C   :2py    0.0485  -0.0954   0.0122  -0.1849   0.0406  -0.4041   0.1866
  23 C   :2pz   -0.0328  -0.0538   0.0525  -0.0336  -0.4797   0.0380   0.6587
  24 C   :3d2-  -0.0156   0.0096  -0.0189  -0.0022   0.0038   0.0010  -0.0017
  25 C   :3d1-   0.0222  -0.0221   0.0082  -0.0028  -0.0118   0.0068  -0.0118
  26 C   :3d0    0.0064   0.0271  -0.0016  -0.0002  -0.0100   0.0063   0.0069
  27 C   :3d1+   0.0250   0.0146   0.0052  -0.0003  -0.0061  -0.0032   0.0001
  28 C   :3d2+   0.0081  -0.0068  -0.0367  -0.0053  -0.0052  -0.0068   0.0052
  29 O   :1s     0.0007  -0.0005  -0.0026  -0.0156  -0.0220  -0.0048  -0.0202
  30 O   :1s     0.0544  -0.1461  -0.0092   0.0957   0.0918   0.0409   0.0705
  31 O   :1s     0.0209  -0.0666   0.0294   0.3196   0.4345   0.1167   0.4133
  32 O   :2px    0.1673  -0.3088  -0.6199  -0.1059  -0.0413   0.0268  -0.0244
  33 O   :2py    0.3836  -0.3153   0.3501   0.0239  -0.0585  -0.0167  -0.0434
  34 O   :2pz   -0.0062  -0.1904   0.2246  -0.1724  -0.1701  -0.0287  -0.1197
  35 O   :2px    0.0042  -0.0214  -0.0666  -0.0647  -0.0025  -0.0060  -0.0222
  36 O   :2py    0.0090  -0.0342   0.0279   0.0802   0.0261   0.0339  -0.0563
  37 O   :2pz    0.0088   0.0130   0.0258  -0.1739  -0.1587  -0.0212  -0.1729
  43 H   :1s    -0.4328   0.1799   0.1494  -0.0427  -0.0676  -0.0437  -0.0530
  44 H   :1s     0.1030  -0.0301   0.0001  -0.5202   0.8809   0.3406   0.9749
  45 H   :2px   -0.0101  -0.0016  -0.0050  -0.0008   0.0096   0.0011   0.0097
  46 H   :2py   -0.0128   0.0020   0.0069  -0.0048   0.0130   0.0051   0.0099
  47 H   :2pz    0.0013  -0.0086  -0.0014   0.0022  -0.0077  -0.0026  -0.0101
  48 H   :1s     0.4740   0.2621  -0.0341   0.0052   0.0282   0.0198   0.0607
  49 H   :1s    -0.1138  -0.0202   0.0060  -0.8583  -0.3730   0.8905   0.7577
  52 H   :2pz    0.0127   0.0071   0.0016  -0.0095  -0.0050   0.0142   0.0126
  53 H   :1s    -0.0031  -0.2346   0.1275  -0.0062   0.0477   0.0312  -0.0194
  54 H   :1s     0.0097   0.0252   0.0172  -0.4384   0.5969   1.0312  -1.0925
  56 H   :2py    0.0043   0.0044  -0.0054   0.0031  -0.0098  -0.0140   0.0119
  58 H   :1s     0.0745  -0.3191   0.3898  -0.0078  -0.0450  -0.0416   0.0267
  59 H   :1s    -0.0165   0.0464  -0.0693  -0.7294   0.1266  -1.2817   1.1236
  60 H   :2px    0.0000   0.0125  -0.0011   0.0058  -0.0014   0.0019  -0.0050
  61 H   :2py   -0.0002  -0.0053   0.0104  -0.0121  -0.0052  -0.0185   0.0127
  63 H   :1s     0.2699   0.4404  -0.0309   0.0276   0.0593  -0.0323  -0.0543
  64 H   :1s    -0.0661  -0.0874  -0.0029  -0.3581   1.2745  -0.7559  -1.1387
  65 H   :2px   -0.0052  -0.0036   0.0074   0.0008  -0.0116  -0.0012   0.0018
  67 H   :2pz   -0.0077  -0.0125  -0.0024   0.0044  -0.0176   0.0135   0.0160
  68 H   :1s    -0.0017   0.2623  -0.0033  -0.0488  -0.0989  -0.0248  -0.0572
  69 H   :1s     0.0290  -0.0859   0.0010  -0.6952  -0.9362  -0.1323  -0.6103
  70 H   :2px    0.0033  -0.0028  -0.0214  -0.0059  -0.0088  -0.0027  -0.0088
  71 H   :2py    0.0124  -0.0089   0.0116   0.0007  -0.0074   0.0009  -0.0041
  72 H   :2pz   -0.0022   0.0139   0.0070  -0.0099  -0.0145  -0.0022  -0.0165

    Orbital        18       19       20       21       22       23
   1 C   :1s     0.0004   0.0042  -0.0428   0.0625  -0.0056   0.0347
   2 C   :1s    -0.0112  -0.0046  -0.0632   0.0496  -0.0238   0.2074
   3 C   :1s     0.0539  -0.0834   0.7948  -1.6684  -0.0248   0.5295
   4 C   :2px    0.0287   0.0170  -0.0326  -0.3108  -0.0404   0.5683
   5 C   :2py    0.2918  -0.1696  -0.0347   0.0525   0.1711  -0.2214
   6 C   :2pz   -0.2424  -0.2814  -0.0238  -0.0590   0.2353   0.1501
   7 C   :2px    0.0955   0.0088   0.6296  -2.1445   0.1001  -0.7786
   8 C   :2py    0.9420  -0.6337   0.4508  -0.0269  -0.5597   0.7509
   9 C   :2pz   -0.6996  -1.0280  -0.3693  -0.0206  -0.7355  -0.5430
  10 C   :3d2-  -0.0027   0.0093  -0.0254  -0.0127  -0.0538   0.0192
  11 C   :3d1-   0.0075  -0.0062  -0.0011   0.0106   0.0677  -0.0517
  12 C   :3d0    0.0050   0.0079   0.0026   0.0040  -0.0845  -0.0854
  13 C   :3d1+  -0.0021   0.0123   0.0084   0.0041  -0.0889  -0.0273
  14 C   :3d2+   0.0092   0.0047  -0.0070   0.0036  -0.0593   0.0582
  15 C   :1s    -0.0071   0.0003   0.0505  -0.0436  -0.0135   0.0646
  16 C   :1s     0.1219   0.0257  -0.1273   0.0400  -0.0571   0.2489
  17 C   :1s     0.4065   0.0582  -1.4369   1.6421   0.0718  -0.1986
  18 C   :2px    0.0823   0.0111   0.0303  -0.4474   0.0636  -0.6110
  19 C   :2py   -0.0005   0.1634  -0.2907   0.0164  -0.0349   0.1003
  20 C   :2pz   -0.0987   0.2667   0.1481  -0.0062  -0.0100  -0.0899
  21 C   :2px    0.2728   0.0333   0.0735  -2.0296  -0.0747   1.3337
  22 C   :2py   -0.4322   0.5229  -1.3830  -0.0466   0.1109  -0.7241
  23 C   :2pz    0.0651   0.9386   0.7591  -0.0223  -0.1521   0.4918
  24 C   :3d2-  -0.0152   0.0101   0.0089   0.0075   0.0454  -0.0112
  25 C   :3d1-   0.0112  -0.0060  -0.0126   0.0022  -0.0305  -0.0412
  26 C   :3d0    0.0018   0.0097  -0.0028  -0.0039   0.0605  -0.0528
  27 C   :3d1+   0.0109   0.0157  -0.0008   0.0015   0.0867   0.0188
  28 C   :3d2+   0.0027   0.0075  -0.0107   0.0114   0.0246   0.0637
  29 O   :1s     0.0053   0.0015  -0.0463   0.0052   0.0072  -0.0242
  30 O   :1s    -0.1106  -0.0353   0.0816   0.0496   0.0386  -0.0700
  31 O   :1s    -0.1770  -0.0665   0.9481  -0.0222  -0.0555   0.3178
  32 O   :2px    0.0951   0.0103  -0.0852   0.0741   0.0014  -0.0217
  33 O   :2py    0.0815  -0.0513  -0.3124  -0.0665   0.0714   0.0003
  34 O   :2pz    0.0513  -0.0485   0.2576   0.1179   0.0438  -0.0141
  35 O   :2px    0.0280   0.0068  -0.2000   0.1919   0.0345  -0.2396
  36 O   :2py    0.0163  -0.0540  -0.4711  -0.1187   0.0278  -0.0290
  37 O   :2pz    0.1036  -0.0969   0.3980   0.1468   0.0214  -0.0323
  38 O   :3d2-   0.0004  -0.0025   0.0033   0.0103   0.0038   0.0014
  43 H   :1s     0.1292   0.0015  -0.0772  -0.2383  -0.0268   0.2459
  44 H   :1s     1.9005   0.0220   0.1896  -0.1543   0.0161  -0.1135
  45 H   :2px    0.0088  -0.0006   0.0304   0.0001  -0.0038   0.0143
  46 H   :2py    0.0186  -0.0019  -0.0001   0.0041  -0.0189  -0.0070
  47 H   :2pz   -0.0090  -0.0016   0.0011  -0.0021  -0.0345  -0.0013
  48 H   :1s    -0.0730  -0.0702   0.0874  -0.0969  -0.9865  -0.6908
  49 H   :1s    -1.1241  -1.4014  -0.4275  -0.5675   0.7694   0.3972
  50 H   :2px   -0.0040  -0.0105  -0.0123  -0.0014   0.0342  -0.0157
  51 H   :2py    0.0020   0.0011   0.0010   0.0011  -0.0230   0.0158
  52 H   :2pz   -0.0141  -0.0144  -0.0025  -0.0007   0.0301   0.0121
  53 H   :1s    -0.0500   0.0701   0.1265  -0.0716   1.0877  -0.4891
  54 H   :1s    -0.5951   1.5242  -0.0744  -0.3746  -0.7782   0.2522
  55 H   :2px   -0.0046   0.0123  -0.0197  -0.0063  -0.0292  -0.0209
  56 H   :2py    0.0047  -0.0137  -0.0018   0.0003   0.0351   0.0068
  57 H   :2pz    0.0038  -0.0082   0.0014  -0.0001   0.0019  -0.0180
  58 H   :1s    -0.0203  -0.0247  -0.1861   0.0309  -0.5391  -0.4875
  59 H   :1s    -0.8041   1.2401  -0.1588   0.4238   0.4265   0.2145
  60 H   :2px    0.0064  -0.0117  -0.0025  -0.0071  -0.0670   0.0198
  61 H   :2py   -0.0044   0.0138  -0.0019   0.0018   0.0288  -0.0020
  62 H   :2pz   -0.0088   0.0035   0.0104  -0.0050   0.0037   0.0169
  63 H   :1s    -0.0127   0.0149  -0.1613   0.0938   0.6281  -0.3770
  64 H   :1s    -0.1772  -1.3771  -0.0066   0.4782  -0.4591   0.0861
  65 H   :2px    0.0062   0.0114   0.0015  -0.0046   0.0658   0.0332
  66 H   :2py    0.0067  -0.0011  -0.0097   0.0044  -0.0090  -0.0230
  67 H   :2pz    0.0005   0.0145  -0.0050   0.0006   0.0290   0.0052
  68 H   :1s     0.0279   0.0330  -0.0319   0.0069   0.0743  -0.1721
  69 H   :1s     0.5214   0.1107   0.7544   0.4543  -0.1989   0.1505
  70 H   :2px    0.0020   0.0058  -0.0082   0.0208  -0.0251  -0.0119
  71 H   :2py    0.0080   0.0002  -0.0020  -0.0018  -0.0264   0.0131

  Total CPU  time used in SIRIUS :   0.40 seconds
  Total wall time used in SIRIUS :   0.40 seconds

 
     Date and time (Linux)  : Tue Dec 14 17:35:21 2021
     Host name              : node653                                 


                     .---------------------------------------.
                     | End of Wave Function Section (SIRIUS) |
                     `---------------------------------------'



        *****************************************************************
        ******** Output from **PROPE input processing for ABACUS ********
        *****************************************************************



 The following molecular properties will be calculated in this run:
 ------------------------------------------------------------------

 Default print level:        0

      The molecular gradient
      The molecular Hessian
      Vibrational analysis
      Dipole moment gradient
      Natural orbital connection is used
      for perturbation dependent basis sets.

 Center of mass dipole origin  :    4.144032    0.925249   -0.596990

 Center of mass gauge origin   :    4.144032    0.925249   -0.596990


                 .------------------------------------------------.
                 | Starting in Static Property Section (ABACUS) - |
                 `------------------------------------------------'


 
     Date and time (Linux)  : Tue Dec 14 17:35:21 2021
     Host name              : node653                                 

 Largest deviation from tra-rot symmetry is in gradient element  5:  1.15E-06


   ***************************************************************************
   ************************ FINAL RESULTS from ABACUS ************************
   ***************************************************************************


 
     Date and time (Linux)  : Tue Dec 14 17:35:46 2021
     Host name              : node653                                 


                             Molecular geometry (au)
                             -----------------------

 C          1.9107020850            0.1456600897           -0.1124953962
 C          4.7728623766            0.1508946311           -0.1254778147
 O          5.6801576838            2.3501578953           -1.3675003104
 H          1.1813811843           -1.5225712362            0.8651166200
 H          1.1704396700            0.1616849673           -2.0446647700
 H          1.1838189310            1.8413680335            0.8242985357
 H          5.5132948669           -1.5152768933           -1.1007843651
 H          5.5050745583            0.1538615011            1.8075986276
 H          5.0352319518            2.3206214760           -3.0879447691





                        Molecular wave function and energy
                        ----------------------------------

     Spatial symmetry   1 ( A   )
     Spin multiplicity  1
     2 * M_S            0
     State number       1
     Total charge       0

     Total energy       -154.0909524489 au (Hartrees)
                         -4193.02811036 eV
                           -404565.7333 kJ/mol
                            -96693.5309 kcal/mol


                   Scalar Breit-Pauli relativistic corrections
                   -------------------------------------------

     Darwin correction:                          0.3201717301 au
     Mass-velocity correction:                  -0.4009433804 au

     Total relativistic correction:             -0.0807716503 au ( 0.0524%)
     Non-relativistic + relativistic energy:  -154.1717240992 au



      (Note that these corrections are NOT included in the results below.)


                             Molecular gradient (au)
                             -----------------------

 C          0.0034020830            0.0009471612           -0.0032683755
 C         -0.0003789706           -0.0118621524            0.0118012482
 O          0.0087358212            0.0072442613            0.0169105715
 H          0.0015371010           -0.0004922255            0.0011899978
 H         -0.0000212877            0.0025494641           -0.0003974201
 H         -0.0018537886            0.0022227030           -0.0004858412
 H          0.0008889616            0.0032462058           -0.0034913759
 H         -0.0015081679           -0.0027560718            0.0043401759
 H         -0.0108017520           -0.0010993458           -0.0265989806





                              Molecular Hessian (au)
                              ----------------------

           C    x      C    y      C    z      C    x      C    y      C    z

 C    x    0.560603
 C    y    0.002000    0.643594
 C    z   -0.003072   -0.009692    0.631223

 C    x   -0.249263    0.019745   -0.011469    0.574102
 C    y    0.006108   -0.090814   -0.005465   -0.041747    0.585215
 C    z   -0.001147   -0.003047   -0.097499    0.040735    0.053829    0.693080

 O    x   -0.017667   -0.049187    0.026893   -0.105452   -0.046803   -0.004312
 O    y   -0.008554   -0.015193    0.013429   -0.068327   -0.207410    0.030757
 O    z    0.004016    0.011849   -0.003654    0.026690    0.073526   -0.135005

 H    x   -0.093279   -0.077092    0.045423   -0.001910   -0.031294    0.018408
 H    y   -0.080828   -0.240864    0.108240    0.003262   -0.000259   -0.001034
 H    z    0.047571    0.108353   -0.119157   -0.001641   -0.000745   -0.001390

 H    x   -0.089314   -0.000396   -0.087736   -0.012557   -0.000085   -0.040572
 H    y    0.000628   -0.056211    0.000454   -0.000093   -0.000832    0.001763
 H    z   -0.091312    0.000877   -0.300898    0.003387    0.001592   -0.000987

 H    x   -0.088464    0.075534    0.042704   -0.012309    0.035548    0.019384
 H    y    0.080549   -0.246145   -0.105823   -0.002502   -0.001570    0.000615
 H    z    0.044135   -0.105559   -0.116169   -0.001290    0.001061    0.000584

 H    x   -0.011829    0.031527    0.020241   -0.099232    0.080416    0.047071
 H    y   -0.001151    0.002912   -0.000814    0.080544   -0.220554   -0.104842
 H    z   -0.002414   -0.000142    0.001551    0.047368   -0.112052   -0.135038

 H    x   -0.012092   -0.001823   -0.036627   -0.098141   -0.000694   -0.096619
 H    y    0.000924    0.001514   -0.000421   -0.004770   -0.062318   -0.020389
 H    z    0.001792   -0.000755    0.002838   -0.093214   -0.008047   -0.301835

 H    x    0.001306   -0.000308    0.003644    0.004762   -0.001449    0.017051
 H    y    0.000324    0.001208    0.000093    0.013889   -0.001457    0.042347
 H    z    0.000432   -0.001884    0.001764   -0.010566   -0.003699   -0.021911


           O    x      O    y      O    z      H    x      H    y      H    z

 O    x    0.204105
 O    y    0.120626    0.318885
 O    z    0.129736   -0.085660    0.579932

 H    x   -0.011367   -0.003959    0.002334    0.095490
 H    y   -0.001325    0.001750    0.000493    0.089143    0.257367
 H    z    0.000647    0.000139    0.001852   -0.051942   -0.120250    0.122001

 H    x    0.003959    0.001599    0.000978    0.004619    0.001612    0.013108
 H    y    0.000221    0.000009   -0.000954    0.011536    0.001823    0.026954
 H    z    0.000233   -0.001828    0.003071   -0.005220   -0.001209   -0.013625

 H    x    0.004657   -0.001288   -0.001719    0.004581   -0.010695   -0.007835
 H    y    0.000013    0.002761   -0.000217    0.009732   -0.020441   -0.013565
 H    z   -0.000467    0.000681   -0.000231   -0.007500    0.014500    0.009384

 H    x    0.007963   -0.019007   -0.004735    0.001058   -0.000884    0.000253
 H    y    0.001175   -0.042655   -0.001867    0.001370    0.000552   -0.000265
 H    z   -0.003504    0.026348    0.010909    0.000332   -0.000036   -0.000080

 H    x    0.006772   -0.001882    0.016887    0.001073   -0.000596    0.000574
 H    y    0.011019   -0.002586    0.039016    0.000129    0.000169   -0.000263
 H    z   -0.003914    0.005160   -0.017461   -0.001108   -0.000390    0.000352

 H    x   -0.092969   -0.019207   -0.174187   -0.000266    0.000311   -0.000735
 H    y   -0.035740   -0.055561   -0.036187    0.000436   -0.000098   -0.000359
 H    z   -0.145311    0.010975   -0.439414   -0.000728   -0.000316    0.000663


           H    x      H    y      H    z      H    x      H    y      H    z

 H    x    0.096119
 H    y   -0.000740    0.052364
 H    z    0.100144   -0.000554    0.324522

 H    x    0.004218   -0.010922   -0.005342    0.094192
 H    y   -0.000886    0.001486    0.000471   -0.087410    0.262490
 H    z    0.011837   -0.028224   -0.015073   -0.046993    0.117106    0.119597

 H    x    0.001881   -0.000075   -0.000956   -0.008418   -0.000149   -0.000237
 H    y    0.000215   -0.000075    0.000441   -0.000622    0.001334    0.000037
 H    z    0.000711    0.000725    0.001158    0.000079    0.000770    0.001551

 H    x   -0.008190    0.000164    0.000081    0.001824    0.000580    0.000404
 H    y   -0.000317    0.001170    0.000650   -0.000216    0.000236    0.000937
 H    z    0.000726   -0.000190    0.001812   -0.000477    0.000545    0.000676

 H    x   -0.000736   -0.000720   -0.001015   -0.000279    0.000073    0.000111
 H    y   -0.001002    0.000266   -0.000440    0.000071   -0.000151   -0.000539
 H    z    0.000805    0.000025    0.000020    0.000199    0.000096   -0.000320


           H    x      H    y      H    z      H    x      H    y      H    z

 H    x    0.102199
 H    y   -0.082316    0.256452
 H    z   -0.054669    0.110249    0.131811

 H    x    0.006431    0.000610    0.012709    0.102894
 H    y   -0.010812    0.001672   -0.026011    0.006130    0.065916
 H    z   -0.006490   -0.001924   -0.013928    0.100558    0.002452    0.326494

 H    x   -0.000052    0.000176   -0.000613   -0.000570   -0.002088    0.002128
 H    y    0.001299    0.000362    0.000149   -0.002490   -0.005773    0.003147
 H    z   -0.000479   -0.001016    0.002066    0.002034    0.004029    0.001052


           H    x      H    y      H    z

 H    x    0.088805
 H    y    0.023213    0.061204
 H    z    0.153615   -0.008210    0.456077





                                  Dipole moment
                                  -------------

                 au               Debye          C m (/(10**-30)
              0.694085           1.764188           5.884697


                             Dipole moment components
                             ------------------------

                 au               Debye          C m (/(10**-30)

      x     -0.42504346        -1.08035264        -3.60366852
      y     -0.48588596        -1.23499885        -4.11951275
      z     -0.25496428        -0.64805452        -2.16167720


   Units:   1 a.u. =   2.54175 Debye 
            1 a.u. =   8.47835 (10**-30) C m (SI)




                           Dipole moment gradient (au)
                           ---------------------------

                       Ex             Ey             Ez

        C    x    -0.06360342    -0.02815603     0.03126795
        C    y     0.03810836     0.12592379     0.00548469
        C    z     0.00105004    -0.00799915     0.15089459

        C    x     0.58101718     0.14083318    -0.13649640
        C    y     0.11703775     0.75450576    -0.16974542
        C    z    -0.13213621    -0.18157024     0.51274617

        O    x    -0.68744573    -0.12961999     0.19714355
        O    y    -0.16168241    -0.84720854     0.23859075
        O    z     0.22364328     0.25885410    -0.52846233

        H    x    -0.00339035    -0.05285945     0.03540576
        H    y    -0.08721037    -0.10165235     0.09803286
        H    z     0.05080629     0.09635260     0.00664259

        H    x    -0.01995032    -0.00379373    -0.03868632
        H    y     0.00770865     0.05522398     0.00921458
        H    z    -0.09673472     0.00495876    -0.18137152

        H    x    -0.01103121     0.03992248     0.02417775
        H    y     0.08591622    -0.08748901    -0.08861728
        H    z     0.03245792    -0.07970744     0.01419957

        H    x    -0.06905077     0.06617005     0.05965736
        H    y     0.07095316    -0.18835403    -0.04192961
        H    z     0.07215719    -0.10588788    -0.04510369

        H    x    -0.03366868    -0.01386284    -0.06806510
        H    y    -0.02723098     0.01656458    -0.00134569
        H    z    -0.08158951     0.02529176    -0.14891435

        H    x     0.30712330    -0.01863366    -0.10440454
        H    y    -0.04360038     0.27248581    -0.04968489
        H    z    -0.06965427    -0.01029251     0.21936898





                            +-------------------------+
                            ! APT Population Analysis !
                            +-------------------------+


      [ Reference : J. Cioslowski, J.Am.Chem.Soc. 111 (1989) 8333 ]

                            C         0.071072
                            C         0.616090
                            O        -0.687706
                            H        -0.032800
                            H        -0.048699
                            H        -0.028107
                            H        -0.100836
                            H        -0.055339
                            H         0.266326



   Interatomic separations (in Angstrom):
   --------------------------------------

            C           C           O           H           H           H     
            ------      ------      ------      ------      ------      ------
 C     :    0.000000
 C     :    1.514608    0.000000
 O     :    2.404331    1.420184    0.000000
 H     :    1.093571    2.161253    3.356068    0.000000
 H     :    1.094965    2.159980    2.676691    1.779143    0.000000
 H     :    1.094945    2.158693    2.660657    1.780252    1.759263    0.000000
 H     :    2.163429    1.094206    2.052264    2.517365    2.513648    3.072755
 H     :    2.156444    1.093865    2.045092    2.504134    3.068728    2.509428
 H     :    2.556887    1.948117    0.972410    3.559636    2.406800    2.916180

            H           H           H     
            ------      ------      ------
 H     :    0.000000
 H     :    1.774503    0.000000
 H     :    2.300033    2.843900    0.000000


  Max    interatomic separation is    3.5596 Angstrom (    6.7267 Bohr)
  between atoms    9 and    4, "H     " and "H     ".

  Min HX interatomic separation is    0.9724 Angstrom (    1.8376 Bohr)

  Min YX interatomic separation is    1.4202 Angstrom (    2.6838 Bohr)


  Bond distances (Angstrom):
  --------------------------

                  atom 1     atom 2       distance
                  ------     ------       --------
  bond distance:  C          C            1.514608
  bond distance:  O          C            1.420184
  bond distance:  H          C            1.093571
  bond distance:  H          C            1.094965
  bond distance:  H          C            1.094945
  bond distance:  H          C            1.094206
  bond distance:  H          C            1.093865
  bond distance:  H          O            0.972410


  Bond angles (degrees):
  ----------------------

                  atom 1     atom 2     atom 3         angle
                  ------     ------     ------         -----
  bond angle:     C          C          H            110.888
  bond angle:     C          C          H            110.702
  bond angle:     C          C          H            110.600
  bond angle:     H          C          H            108.768
  bond angle:     H          C          H            108.869
  bond angle:     H          C          H            106.902
  bond angle:     C          C          O            109.978
  bond angle:     C          C          H            111.023
  bond angle:     C          C          H            110.486
  bond angle:     O          C          H            108.722
  bond angle:     O          C          H            108.171
  bond angle:     H          C          H            108.385
  bond angle:     C          O          H            107.546




   ****************************************************************************
   *************** ABACUS - ROTATIONAL AND VIBRATIONAL ANALYSIS ***************
   ****************************************************************************


 Norm of (unprojected) molecular gradient (au) :     0.04018642

 WARNING: Vibrational analysis performed at a non-equilibrium geometry,
 better results may be obtained using .INTERN
 (this will correct Hessian for rotation coordinates).



 Conversion factors used:

    Hartree to (cm)-1      : 219474.62934
    a.m.u.  to a.u.        :   1822.88848
    Bohr    to Angstrom    :  0.529177211
    a.u.    to A**4amu-1   :   142.943572
    a.u.    to km (mol)-1  :      974.864


 Vibrational analysis for parent molecule only.
  Norm of projected gradient     0.040186


                         Isotopic Molecule No. 1
                         ======================= 


                                 Isotopic Masses
                                 ---------------

                           C          12.000000
                           C          12.000000
                           O          15.994915
                           H           1.007825
                           H           1.007825
                           H           1.007825
                           H           1.007825
                           H           1.007825
                           H           1.007825

                       Total mass:    46.041865 amu
                       Natural abundance:  97.490 %

 Center-of-mass coordinates (a.u.):    4.144032    0.925249   -0.596990


 Principal moments of inertia (u*A**2) and principal axes
 --------------------------------------------------------

   IA      15.174894          0.828122    0.477066   -0.294314
   IB      52.969915         -0.559862    0.677977   -0.476342
   IC      60.728626         -0.027709    0.559245    0.828539


 Rotational constants
 --------------------

               A                   B                   C

          33303.6263           9540.8687           8321.9239 MHz
            1.110889            0.318249            0.277590 cm-1


  Vibrational Frequencies and IR Intensities
  ------------------------------------------

  mode   irrep        frequency             IR intensity
  ============================================================
                  cm-1       hartrees     km/mol   (D/A)**2/amu
  ------------------------------------------------------------
   1      A      3776.12    0.017205     36.172   0.8560
   2      A      3243.09    0.014777     51.771   1.2252
   3      A      3239.01    0.014758     94.760   2.2426
   4      A      3211.22    0.014631      1.041   0.0246
   5      A      3171.17    0.014449     47.663   1.1280
   6      A      3155.67    0.014378     43.532   1.0302
   7      A      1625.69    0.007407      0.770   0.0182
   8      A      1598.22    0.007282      1.280   0.0303
   9      A      1584.61    0.007220     14.011   0.3316
  10      A      1553.03    0.007076     79.442   1.8800
  11      A      1525.20    0.006949     14.588   0.3452
  12      A      1491.39    0.006795      1.333   0.0315
  13      A      1386.95    0.006319      5.683   0.1345
  14      A      1239.98    0.005650      4.787   0.1133
  15      A      1181.44    0.005383     69.355   1.6413
  16      A      1139.70    0.005193     39.768   0.9411
  17      A       965.56    0.004399     16.710   0.3954
  18      A       877.07    0.003996      2.540   0.0601
  19      A       700.44    0.003191    134.171   3.1752
  20      A       473.29    0.002156      2.116   0.0501
  21      A       339.96    0.001549      0.897   0.0212



  Normal Coordinates (bohrs*amu**(1/2)):
  --------------------------------------


                1  3776     2  3243     3  3239     4  3211     5  3171 
  ----------------------------------------------------------------------

    C      x    0.000305   -0.003217    0.002718    0.002744   -0.017895
    C      y   -0.000197   -0.084008   -0.012586   -0.022937    0.012300
    C      z    0.000567    0.025665   -0.057012   -0.062032   -0.001548

    C      x   -0.001600    0.004474   -0.008151    0.009725    0.039214
    C      y   -0.001252   -0.010334   -0.024120    0.017162   -0.050734
    C      z   -0.002284   -0.005105   -0.063952    0.054729    0.000801

    O      x   -0.020087   -0.000152    0.000541   -0.000717   -0.000974
    O      y    0.000864    0.000519    0.000165   -0.000085   -0.001212
    O      z   -0.057087   -0.000063    0.001882   -0.001337    0.000259

    H      x   -0.001864    0.275783   -0.067528   -0.046455    0.035454
    H      y   -0.001076    0.620222   -0.152641   -0.114750    0.071454
    H      z    0.000201   -0.365477    0.080362    0.054266   -0.039890

    H      x   -0.000159   -0.068081    0.170123    0.180680    0.065974
    H      y    0.000240   -0.013775   -0.004276   -0.005908    0.002891
    H      z   -0.004128   -0.181365    0.439998    0.477496    0.180336

    H      x    0.000038   -0.173405   -0.129751   -0.166020    0.090208
    H      y    0.000053    0.402417    0.304890    0.397305   -0.217635
    H      z   -0.000328    0.237393    0.160074    0.211208   -0.125980

    H      x   -0.001766   -0.050132   -0.132255    0.093697   -0.283429
    H      y   -0.000699    0.106784    0.281361   -0.200184    0.635389
    H      z    0.002381    0.063994    0.168345   -0.114457    0.387059

    H      x    0.006954    0.001357    0.224460   -0.206898   -0.148603
    H      y    0.000963    0.000179    0.011699   -0.007935   -0.014327
    H      z    0.020647    0.002725    0.571881   -0.534477   -0.406361

    H      x    0.331023    0.001917   -0.008953    0.007921    0.002010
    H      y    0.004052   -0.000742   -0.006599    0.001572   -0.000908
    H      z    0.907680   -0.001080   -0.010224    0.014137    0.009615


                6  3156     7  1626     8  1598     9  1585    10  1553 
  ----------------------------------------------------------------------

    C      x    0.046906    0.005243   -0.025077    0.000892   -0.071819
    C      y    0.001553    0.009456    0.034238   -0.026200   -0.026550
    C      z    0.007686   -0.008334   -0.028271   -0.035644   -0.000069

    C      x    0.010176   -0.049870    0.041174   -0.017953    0.091435
    C      y   -0.018496    0.055215    0.010324   -0.027594    0.048991
    C      z    0.000242   -0.045132   -0.004420   -0.028558    0.013728

    O      x   -0.000098    0.004119   -0.004128    0.013004   -0.034910
    O      y    0.000013    0.011997   -0.005044    0.015511   -0.029042
    O      z    0.000035    0.002333    0.000930    0.011793   -0.024661

    H      x   -0.174724   -0.117946   -0.237539    0.047334    0.221116
    H      y   -0.416450    0.075435    0.134155    0.310751   -0.026379
    H      z    0.246524    0.008530    0.010646    0.570848    0.217070

    H      x   -0.204526    0.081685    0.258596    0.297322    0.216632
    H      y    0.000774   -0.154041   -0.508978    0.387037    0.218477
    H      z   -0.565972   -0.033619   -0.125516   -0.135381   -0.104977

    H      x   -0.158757    0.035866    0.208208   -0.303301    0.095870
    H      y    0.397727   -0.086701   -0.208098   -0.250232    0.071527
    H      z    0.225765    0.180120    0.568099    0.155693   -0.032768

    H      x   -0.095392    0.245981   -0.181611    0.047663   -0.145306
    H      y    0.224549   -0.195815    0.002797   -0.005958   -0.107302
    H      z    0.136095    0.575244   -0.150596   -0.020322    0.090846

    H      x   -0.045140    0.264657   -0.191917    0.013946   -0.283136
    H      y   -0.005104   -0.523909    0.118847    0.145000   -0.381366
    H      z   -0.136532   -0.149899    0.078563   -0.048506    0.174196

    H      x    0.000424   -0.044238    0.018114   -0.106207    0.215314
    H      y    0.000030   -0.075394    0.010728   -0.192253    0.418752
    H      z   -0.000842    0.019210   -0.006710    0.054945   -0.115611


               11  1525    12  1491    13  1387    14  1240    15  1181 
  ----------------------------------------------------------------------

    C      x    0.097640   -0.065183   -0.005312   -0.018348   -0.023216
    C      y    0.012385    0.035082   -0.036199    0.081581    0.063024
    C      z   -0.021372   -0.017602   -0.087758    0.034647   -0.069741

    C      x   -0.017947   -0.072229    0.001852    0.034068    0.037364
    C      y    0.000261   -0.039310    0.010092   -0.120001   -0.088664
    C      z    0.048449    0.051637    0.062966   -0.051593    0.098497

    O      x   -0.023758   -0.001958   -0.012072   -0.016085    0.011764
    O      y   -0.037906   -0.028842    0.002081    0.030738    0.073782
    O      z   -0.024402   -0.011853    0.007260    0.006238   -0.044397

    H      x   -0.316902    0.343376    0.051187    0.174947    0.334814
    H      y    0.228704   -0.090793    0.070427   -0.086393   -0.026322
    H      z    0.050756    0.066702    0.139692   -0.092718    0.068903

    H      x   -0.276404    0.215341   -0.268959    0.094131   -0.327175
    H      y   -0.031532   -0.080125    0.075725   -0.166643   -0.102893
    H      z    0.122748   -0.110238    0.019658   -0.013610    0.051986

    H      x   -0.375263    0.197967    0.234195   -0.364206   -0.122327
    H      y   -0.225998    0.056215   -0.037888   -0.047135   -0.098866
    H      z    0.062621    0.126345    0.103995   -0.014319    0.143225

    H      x    0.171299    0.479089   -0.446065    0.021022   -0.021460
    H      y    0.184514    0.329654   -0.221286   -0.346683   -0.016111
    H      z   -0.102063   -0.154326    0.106312    0.322528   -0.064148

    H      x   -0.010433    0.314570    0.533360    0.003135   -0.086278
    H      y   -0.139560    0.066493    0.209898    0.323130   -0.363351
    H      z    0.050018   -0.091116   -0.145351   -0.044280    0.152333

    H      x    0.235873    0.116867    0.129070    0.139079   -0.132737
    H      y    0.434895    0.226643    0.180945    0.293348   -0.258148
    H      z   -0.119199   -0.054490   -0.044342   -0.054834    0.009922


               16  1140    17   966    18   877    19   700    20   473 
  ----------------------------------------------------------------------

    C      x   -0.106090    0.121687   -0.009873    0.005201   -0.092079
    C      y    0.036418    0.062029   -0.030150    0.005637   -0.073675
    C      z   -0.024011   -0.038003   -0.036427    0.024468    0.048556

    C      x    0.161326   -0.066091    0.002163    0.001312   -0.067984
    C      y    0.073936    0.076083   -0.030635   -0.024495    0.076319
    C      z   -0.045636   -0.052496   -0.048336   -0.032417   -0.047007

    O      x   -0.033915   -0.049447    0.009668   -0.057590    0.136566
    O      y   -0.078257   -0.084903    0.008076    0.036752    0.021114
    O      z    0.052068    0.053610    0.009700    0.022146   -0.012392

    H      x   -0.007361    0.548321   -0.022541   -0.031929    0.175944
    H      y    0.002701   -0.073438    0.093077    0.012106   -0.151440
    H      z    0.004595    0.052698    0.163652    0.009161    0.121558

    H      x   -0.259351   -0.071969   -0.430211   -0.028466   -0.225948
    H      y   -0.032085   -0.100808    0.135080    0.085739   -0.201455
    H      z    0.026863    0.037765    0.128471    0.038602    0.099420

    H      x   -0.237375   -0.024310    0.418538    0.091098   -0.241716
    H      y   -0.038043   -0.073251    0.043024    0.019509   -0.158849
    H      z    0.023614    0.086473    0.168843    0.060867    0.088689

    H      x    0.218064   -0.147042    0.386534    0.042932   -0.112680
    H      y    0.091178   -0.006943   -0.042534    0.011837    0.054398
    H      z   -0.054509    0.018064    0.271587   -0.059921   -0.043295

    H      x    0.222464   -0.180807   -0.378741    0.002366   -0.077740
    H      y    0.064503    0.024324    0.263616   -0.043427    0.030653
    H      z   -0.064344   -0.007183    0.098154   -0.031088   -0.043101

    H      x   -0.055883   -0.001399   -0.035222    0.760430    0.220573
    H      y   -0.160215   -0.066889    0.103318   -0.444495    0.060110
    H      z    0.066691    0.038914    0.024604   -0.274452   -0.045046


               21   340 
  ----------------------

    C      x   -0.003874
    C      y   -0.002744
    C      z    0.002782

    C      x   -0.003247
    C      y    0.037880
    C      z    0.052981

    O      x    0.007291
    O      y   -0.026032
    O      z   -0.048632

    H      x    0.010735
    H      y   -0.289478
    H      z   -0.476078

    H      x    0.060517
    H      y    0.500839
    H      z   -0.018811

    H      x   -0.092954
    H      y   -0.278235
    H      z    0.431327

    H      x    0.025931
    H      y   -0.004733
    H      z    0.151509

    H      x   -0.032445
    H      y    0.137207
    H      z    0.064007

    H      x   -0.002718
    H      y   -0.070801
    H      z   -0.044103




  Dipole Gradient in Normal Coordinate Basis (D/(A*amu**(1/2)))
  -------------------------------------------------------------


  mode           dMA/dQi        dMB/dQi        dMC/dQi
  ----------------------------------------------------
   1            0.178550      -0.132842       0.898051
   2            0.021978      -1.071322       0.277473
   3           -0.049885      -0.454865      -1.425891
   4            0.137668       0.046075      -0.059622
   5            0.477859      -0.947990       0.030500
   6            0.949688      -0.314410       0.171615
   7           -0.055293      -0.119580       0.029427
   8            0.132885      -0.053667       0.098769
   9           -0.262755      -0.185783       0.477508
  10            0.857395       0.988781      -0.408928
  11            0.067520       0.560347      -0.163384
  12           -0.086055       0.019046       0.154175
  13            0.242814       0.232265      -0.146930
  14            0.239795      -0.008994      -0.236003
  15           -0.283747      -1.088633       0.612943
  16            0.649708       0.608497      -0.385672
  17            0.237736       0.505893      -0.288097
  18           -0.143312       0.189030       0.061980
  19            1.486988      -0.737656      -0.648047
  20           -0.169202       0.076818      -0.124728
  21           -0.062966      -0.021814       0.129583



                              Total Molecular Energy
                              ----------------------

             electronic     vibrational           total    energy 

            -154.090952        0.085383     -154.005569    Hartrees
           -33819054.67        18739.40    -33800315.27    cm-1
             -404565.73          224.17      -404341.56    kJ/mol
              -96693.53           53.58       -96639.95    kcal/mol


                          Molecular Partition Functions
                          -----------------------------

 Qtran is evaluated per mol at 1 atm. pressure.
 Qrot does not include symmetry numbers.
 Qvib does not include zero point energies
 (i.e., energy scale has vibrational ground state as zero).


 Temp.(K)  Translational     Rotational    Vibrational      Total

    50.00     1.4142D+05        1162.11         1.0001   1.643585D+08
   100.00     8.0001D+05        3282.67         1.0087   2.649073D+09
   200.00     4.5255D+06        9278.71         1.1439   4.803445D+10
   273.15     9.8650D+06       14807.05         1.3750   2.008481D+11
   298.15     1.2279D+07       16885.02         1.4862   3.081445D+11
   300.00     1.2471D+07       17042.37         1.4952   3.177745D+11
   400.00     2.5600D+07       26235.59         2.1827   1.465998D+12
   500.00     4.4722D+07       36662.95         3.4767   5.700449D+12
   600.00     7.0546D+07       48192.60         5.9061   2.007936D+13
   700.00     1.0371D+08       60727.72        10.4877   6.605478D+13
   800.00     1.4482D+08       74193.31        19.1640   2.059058D+14
   900.00     1.9440D+08       88529.02        35.6212   6.130475D+14
  1000.00     2.5298D+08      103684.91        66.7966   1.752118D+15
  1500.00     6.9714D+08      190473.04      1510.2284   2.005384D+17
  2000.00     1.4311D+09      293246.04     27658.6676   1.160731D+19


                                +------------------+
                                ! Polarizabilities !
                                +------------------+


 Vibrational polarizabilities calculated acc. to Rinaldi et al.,
 Chem.Phys.Lett. 128 (1986) 177-181.


                        Vibrational Polarizabilities (au)
                        ---------------------------------

                         Ex          Ey          Ez

            Ex       6.494583   -1.517034   -2.937081
            Ey      -1.517034    3.909265   -0.156732
            Ez      -2.937081   -0.156732    2.340456



                   Vibrational Polarizabilities (angstroms**3)
                   -------------------------------------------

                         Ex          Ey          Ez

            Ex       0.962398   -0.224801   -0.435231
            Ey      -0.224801    0.579293   -0.023225
            Ez      -0.435231   -0.023225    0.346820



                   Vibrational Polarizabilities (angstroms**3)
                   -------------------------------------------

               (Along principal axes of moments of inertia)

                         EA          EB          EC

            EA       0.862938   -0.166501   -0.360773
            EB      -0.166501    0.600146    0.361587
            EC      -0.360773    0.361587    0.425427



 Vibrational mean polarization :    1.5898 cm**3 mol**-1


 CPU time statistics for ABACUS
 ------------------------------

 TWOTEX     00:00:19      77 %
 RHSIDE     00:00:01       5 %
 RESPON     00:00:04      17 %

 TOTAL      00:00:24     100 %


  Total CPU  time used in ABACUS:  24.41 seconds
  Total wall time used in ABACUS:  24.42 seconds


                   .-------------------------------------------.
                   | End of Static Property Section (ABACUS) - |
                   `-------------------------------------------'

  Total CPU  time used in DALTON:  26.64 seconds
  Total wall time used in DALTON:  27.82 seconds

 
     Date and time (Linux)  : Tue Dec 14 17:35:46 2021
     Host name              : node653                                 
