 Entering Gaussian System, Link 0=/opt/gaussian/g16/sse4/g16/g16
 Initial command:
 /opt/gaussian/g16/sse4/g16/l1.exe "/scratch/1549349/Gau-1339.inp" -scrdir="/scratch/1549349/"
 Entering Link 1 = /opt/gaussian/g16/sse4/g16/l1.exe PID=      1341.
  
 Copyright (c) 1988,1990,1992,1993,1995,1998,2003,2009,2016,
            Gaussian, Inc.  All Rights Reserved.
  
 This is part of the Gaussian(R) 16 program.  It is based on
 the Gaussian(R) 09 system (copyright 2009, Gaussian, Inc.),
 the Gaussian(R) 03 system (copyright 2003, Gaussian, Inc.),
 the Gaussian(R) 98 system (copyright 1998, Gaussian, Inc.),
 the Gaussian(R) 94 system (copyright 1995, Gaussian, Inc.),
 the Gaussian 92(TM) system (copyright 1992, Gaussian, Inc.),
 the Gaussian 90(TM) system (copyright 1990, Gaussian, Inc.),
 the Gaussian 88(TM) system (copyright 1988, Gaussian, Inc.),
 the Gaussian 86(TM) system (copyright 1986, Carnegie Mellon
 University), and the Gaussian 82(TM) system (copyright 1983,
 Carnegie Mellon University). Gaussian is a federally registered
 trademark of Gaussian, Inc.
  
 This software contains proprietary and confidential information,
 including trade secrets, belonging to Gaussian, Inc.
  
 This software is provided under written license and may be
 used, copied, transmitted, or stored only in accord with that
 written license.
  
 The following legend is applicable only to US Government
 contracts under FAR:
  
                    RESTRICTED RIGHTS LEGEND
  
 Use, reproduction and disclosure by the US Government is
 subject to restrictions as set forth in subparagraphs (a)
 and (c) of the Commercial Computer Software - Restricted
 Rights clause in FAR 52.227-19.
  
 Gaussian, Inc.
 340 Quinnipiac St., Bldg. 40, Wallingford CT 06492
  
  
 ---------------------------------------------------------------
 Warning -- This program may not be used in any manner that
 competes with the business of Gaussian, Inc. or will provide
 assistance to any competitor of Gaussian, Inc.  The licensee
 of this program is prohibited from giving any competitor of
 Gaussian, Inc. access to this program.  By using this program,
 the user acknowledges that Gaussian, Inc. is engaged in the
 business of creating and licensing software in the field of
 computational chemistry and represents and warrants to the
 licensee that it is not a competitor of Gaussian, Inc. and that
 it will not use this program in any manner prohibited above.
 ---------------------------------------------------------------
  

 Cite this work as:
 Gaussian 16, Revision A.03,
 M. J. Frisch, G. W. Trucks, H. B. Schlegel, G. E. Scuseria, 
 M. A. Robb, J. R. Cheeseman, G. Scalmani, V. Barone, 
 G. A. Petersson, H. Nakatsuji, X. Li, M. Caricato, A. V. Marenich, 
 J. Bloino, B. G. Janesko, R. Gomperts, B. Mennucci, H. P. Hratchian, 
 J. V. Ortiz, A. F. Izmaylov, J. L. Sonnenberg, D. Williams-Young, 
 F. Ding, F. Lipparini, F. Egidi, J. Goings, B. Peng, A. Petrone, 
 T. Henderson, D. Ranasinghe, V. G. Zakrzewski, J. Gao, N. Rega, 
 G. Zheng, W. Liang, M. Hada, M. Ehara, K. Toyota, R. Fukuda, 
 J. Hasegawa, M. Ishida, T. Nakajima, Y. Honda, O. Kitao, H. Nakai, 
 T. Vreven, K. Throssell, J. A. Montgomery, Jr., J. E. Peralta, 
 F. Ogliaro, M. J. Bearpark, J. J. Heyd, E. N. Brothers, K. N. Kudin, 
 V. N. Staroverov, T. A. Keith, R. Kobayashi, J. Normand, 
 K. Raghavachari, A. P. Rendell, J. C. Burant, S. S. Iyengar, 
 J. Tomasi, M. Cossi, J. M. Millam, M. Klene, C. Adamo, R. Cammi, 
 J. W. Ochterski, R. L. Martin, K. Morokuma, O. Farkas, 
 J. B. Foresman, and D. J. Fox, Gaussian, Inc., Wallingford CT, 2016.
 
 ******************************************
 Gaussian 16:  ES64L-G16RevA.03 25-Dec-2016
                16-Dec-2021 
 ******************************************
 %chk=HF_Methane_gaus.chk
 %nprocshared=4
 Will use up to    4 processors via shared memory.
 %mem=4GB
 ----------------------------------------------
 #p opt freq hf/cc-pvdz geom=connectivity polar
 ----------------------------------------------
 1/18=20,19=15,38=1,57=2/1,3;
 2/9=110,12=2,17=6,18=5,40=1/2;
 3/5=16,11=9,25=1,30=1,71=1/1,2,3;
 4//1;
 5/5=2,38=5,98=1/2;
 6/7=2,8=2,9=2,10=2,28=1/1;
 7//1,2,3,16;
 1/18=20,19=15/3(2);
 2/9=110/2;
 99//99;
 2/9=110/2;
 3/5=16,11=9,25=1,30=1,71=1/1,2,3;
 4/5=5,16=3,69=1/1;
 5/5=2,38=5,98=1/2;
 7//1,2,3,16;
 1/18=20,19=15/3(-5);
 2/9=110/2;
 6/7=2,8=2,9=2,10=2,19=2,28=1/1;
 99/9=1/99;
 Leave Link    1 at Thu Dec 16 11:32:07 2021, MaxMem=   536870912 cpu:               0.1 elap:               0.0
 (Enter /opt/gaussian/g16/sse4/g16/l101.exe)
 -----------
 Methane.xyz
 -----------
 Symbolic Z-matrix:
 Charge =  0 Multiplicity = 1
 C                     1.01825   0.09315   0.03147 
 H                     2.11045   0.09315   0.03147 
 H                     0.65419  -0.6028    0.79043 
 H                     0.65418  -0.21615  -0.95071 
 H                     0.65418   1.0984    0.2547 
 
 ITRead=  0  0  0  0  0
 MicOpt= -1 -1 -1 -1 -1
 NAtoms=      5 NQM=        5 NQMF=       0 NMMI=      0 NMMIF=      0
                NMic=       0 NMicF=      0.
                    Isotopes and Nuclear Properties:
 (Nuclear quadrupole moments (NQMom) in fm**2, nuclear magnetic moments (NMagM)
  in nuclear magnetons)

  Atom         1           2           3           4           5
 IAtWgt=          12           1           1           1           1
 AtmWgt=  12.0000000   1.0078250   1.0078250   1.0078250   1.0078250
 NucSpn=           0           1           1           1           1
 AtZEff=  -0.0000000  -0.0000000  -0.0000000  -0.0000000  -0.0000000
 NQMom=    0.0000000   0.0000000   0.0000000   0.0000000   0.0000000
 NMagM=    0.0000000   2.7928460   2.7928460   2.7928460   2.7928460
 AtZNuc=   6.0000000   1.0000000   1.0000000   1.0000000   1.0000000
 Leave Link  101 at Thu Dec 16 11:32:09 2021, MaxMem=   536870912 cpu:               0.8 elap:               0.2
 (Enter /opt/gaussian/g16/sse4/g16/l103.exe)

 GradGradGradGradGradGradGradGradGradGradGradGradGradGradGradGradGradGrad
 Berny optimization.
 Initialization pass.
                           ----------------------------
                           !    Initial Parameters    !
                           ! (Angstroms and Degrees)  !
 --------------------------                            --------------------------
 ! Name  Definition              Value          Derivative Info.                !
 --------------------------------------------------------------------------------
 ! R1    R(1,2)                  1.0922         estimate D2E/DX2                !
 ! R2    R(1,3)                  1.0922         estimate D2E/DX2                !
 ! R3    R(1,4)                  1.0922         estimate D2E/DX2                !
 ! R4    R(1,5)                  1.0922         estimate D2E/DX2                !
 ! A1    A(2,1,3)              109.4708         estimate D2E/DX2                !
 ! A2    A(2,1,4)              109.4715         estimate D2E/DX2                !
 ! A3    A(2,1,5)              109.4714         estimate D2E/DX2                !
 ! A4    A(3,1,4)              109.4713         estimate D2E/DX2                !
 ! A5    A(3,1,5)              109.4713         estimate D2E/DX2                !
 ! A6    A(4,1,5)              109.471          estimate D2E/DX2                !
 ! D1    D(2,1,4,3)            119.9997         estimate D2E/DX2                !
 ! D2    D(2,1,5,3)           -119.9996         estimate D2E/DX2                !
 ! D3    D(2,1,5,4)            120.0003         estimate D2E/DX2                !
 ! D4    D(3,1,5,4)           -120.0001         estimate D2E/DX2                !
 --------------------------------------------------------------------------------
 Trust Radius=3.00D-01 FncErr=1.00D-07 GrdErr=1.00D-07 EigMax=2.50D+02 EigMin=1.00D-04
 Number of steps in this run=     24 maximum allowed number of steps=    100.
 GradGradGradGradGradGradGradGradGradGradGradGradGradGradGradGradGradGrad

 Leave Link  103 at Thu Dec 16 11:32:09 2021, MaxMem=   536870912 cpu:               0.0 elap:               0.0
 (Enter /opt/gaussian/g16/sse4/g16/l202.exe)
                          Input orientation:                          
 ---------------------------------------------------------------------
 Center     Atomic      Atomic             Coordinates (Angstroms)
 Number     Number       Type             X           Y           Z
 ---------------------------------------------------------------------
      1          6           0        1.018250    0.093150    0.031470
      2          1           0        2.110450    0.093150    0.031470
      3          1           0        0.654190   -0.602800    0.790430
      4          1           0        0.654180   -0.216150   -0.950710
      5          1           0        0.654180    1.098400    0.254700
 ---------------------------------------------------------------------
                    Distance matrix (angstroms):
                    1          2          3          4          5
     1  C    0.000000
     2  H    1.092200   0.000000
     3  H    1.092203   1.783553   0.000000
     4  H    1.092195   1.783554   1.783555   0.000000
     5  H    1.092202   1.783559   1.783561   1.783551   0.000000
 This structure is nearly, but not quite of a higher symmetry.
 Consider Symm=Loose if the higher symmetry is desired.
 Stoichiometry    CH4
 Framework group  C1[X(CH4)]
 Deg. of freedom     9
 Full point group                 C1      NOp   1
 Largest Abelian subgroup         C1      NOp   1
 Largest concise Abelian subgroup C1      NOp   1
                         Standard orientation:                         
 ---------------------------------------------------------------------
 Center     Atomic      Atomic             Coordinates (Angstroms)
 Number     Number       Type             X           Y           Z
 ---------------------------------------------------------------------
      1          6           0        0.000001   -0.000000   -0.000001
      2          1           0        0.238897    1.049174    0.187251
      3          1           0       -0.103162   -0.525400    0.951954
      4          1           0        0.802074   -0.457527   -0.583300
      5          1           0       -0.937812   -0.066247   -0.555900
 ---------------------------------------------------------------------
 Rotational constants (GHZ):         157.6379695         157.6370300         157.6367913
 Leave Link  202 at Thu Dec 16 11:32:09 2021, MaxMem=   536870912 cpu:               0.0 elap:               0.0
 (Enter /opt/gaussian/g16/sse4/g16/l301.exe)
 Standard basis: CC-pVDZ (5D, 7F)
 Ernie: Thresh=  0.10000D-02 Tol=  0.10000D-05 Strict=F.
 Ernie:  2 primitive shells out of 42 were deleted.
 There are    35 symmetry adapted cartesian basis functions of A   symmetry.
 There are    34 symmetry adapted basis functions of A   symmetry.
    34 basis functions,    61 primitive gaussians,    35 cartesian basis functions
     5 alpha electrons        5 beta electrons
       nuclear repulsion energy        13.4083251507 Hartrees.
 IExCor=    0 DFT=F Ex=HF Corr=None ExCW=0 ScaHFX=  1.000000
 ScaDFX=  1.000000  1.000000  1.000000  1.000000 ScalE2=  1.000000  1.000000
 IRadAn=      5 IRanWt=     -1 IRanGd=            0 ICorTp=0 IEmpDi=  4
 NAtoms=    5 NActive=    5 NUniq=    5 SFac= 1.00D+00 NAtFMM=   60 NAOKFM=F Big=F
 Integral buffers will be    131072 words long.
 Raffenetti 1 integral format.
 Two-electron integral symmetry is turned on.
 Leave Link  301 at Thu Dec 16 11:32:10 2021, MaxMem=   536870912 cpu:               0.1 elap:               0.0
 (Enter /opt/gaussian/g16/sse4/g16/l302.exe)
 NPDir=0 NMtPBC=     1 NCelOv=     1 NCel=       1 NClECP=     1 NCelD=      1
         NCelK=      1 NCelE2=     1 NClLst=     1 CellRange=     0.0.
 One-electron integrals computed using PRISM.
 One-electron integral symmetry used in STVInt
 NBasis=    34 RedAO= T EigKep=  2.35D-02  NBF=    34
 NBsUse=    34 1.00D-06 EigRej= -1.00D+00 NBFU=    34
 Leave Link  302 at Thu Dec 16 11:32:10 2021, MaxMem=   536870912 cpu:               0.4 elap:               0.1
 (Enter /opt/gaussian/g16/sse4/g16/l303.exe)
 DipDrv:  MaxL=1.
 Leave Link  303 at Thu Dec 16 11:32:10 2021, MaxMem=   536870912 cpu:               0.1 elap:               0.1
 (Enter /opt/gaussian/g16/sse4/g16/l401.exe)
 ExpMin= 1.22D-01 ExpMax= 6.67D+03 ExpMxC= 2.28D+02 IAcc=3 IRadAn=         5 AccDes= 0.00D+00
 Harris functional with IExCor=  205 and IRadAn=       5 diagonalized for initial guess.
 HarFok:  IExCor=  205 AccDes= 0.00D+00 IRadAn=         5 IDoV= 1 UseB2=F ITyADJ=14
 ICtDFT=  3500011 ScaDFX=  1.000000  1.000000  1.000000  1.000000
 FoFCou: FMM=F IPFlag=           0 FMFlag=      100000 FMFlg1=           0
         NFxFlg=           0 DoJE=T BraDBF=F KetDBF=T FulRan=T
         wScrn=  0.000000 ICntrl=       500 IOpCl=  0 I1Cent=   200000004 NGrid=           0
         NMat0=    1 NMatS0=      1 NMatT0=    0 NMatD0=    1 NMtDS0=    0 NMtDT0=    0
 Petite list used in FoFCou.
 Harris En= -40.3680941994179    
 JPrj=0 DoOrth=F DoCkMO=F.
 Leave Link  401 at Thu Dec 16 11:32:11 2021, MaxMem=   536870912 cpu:               1.0 elap:               0.2
 (Enter /opt/gaussian/g16/sse4/g16/l502.exe)
 Keep R1 ints in memory in canonical form, NReq=1015658.
 FoFCou: FMM=F IPFlag=           0 FMFlag=           0 FMFlg1=           0
         NFxFlg=           0 DoJE=F BraDBF=F KetDBF=F FulRan=T
         wScrn=  0.000000 ICntrl=       600 IOpCl=  0 I1Cent=           0 NGrid=           0
         NMat0=    1 NMatS0=    595 NMatT0=    0 NMatD0=    1 NMtDS0=    0 NMtDT0=    0
 Symmetry not used in FoFCou.
 Two-electron integral symmetry not used.
 Closed shell SCF:
 Using DIIS extrapolation, IDIIS=  1040.
 NGot=   536870912 LenX=   536690353 LenY=   536688687
 Requested convergence on RMS density matrix=1.00D-08 within 128 cycles.
 Requested convergence on MAX density matrix=1.00D-06.
 Requested convergence on             energy=1.00D-06.
 No special actions if energy rises.

 Cycle   1  Pass 1  IDiag  1:
 E= -40.0778413913797    
 DIIS: error= 5.64D-02 at cycle   1 NSaved=   1.
 NSaved= 1 IEnMin= 1 EnMin= -40.0778413913797     IErMin= 1 ErrMin= 5.64D-02
 ErrMax= 5.64D-02  0.00D+00 EMaxC= 1.00D-01 BMatC= 1.19D-01 BMatP= 1.19D-01
 IDIUse=3 WtCom= 4.36D-01 WtEn= 5.64D-01
 Coeff-Com:  0.100D+01
 Coeff-En:   0.100D+01
 Coeff:      0.100D+01
 Gap=     0.655 Goal=   None    Shift=    0.000
 GapD=    0.655 DampG=2.000 DampE=0.500 DampFc=1.0000 IDamp=-1.
 RMSDP=9.96D-03 MaxDP=1.28D-01              OVMax= 1.44D-01

 Cycle   2  Pass 1  IDiag  1:
 E= -40.1804358076512     Delta-E=       -0.102594416271 Rises=F Damp=F
 DIIS: error= 2.60D-02 at cycle   2 NSaved=   2.
 NSaved= 2 IEnMin= 2 EnMin= -40.1804358076512     IErMin= 2 ErrMin= 2.60D-02
 ErrMax= 2.60D-02  0.00D+00 EMaxC= 1.00D-01 BMatC= 1.87D-02 BMatP= 1.19D-01
 IDIUse=3 WtCom= 7.40D-01 WtEn= 2.60D-01
 Coeff-Com:  0.266D+00 0.734D+00
 Coeff-En:   0.000D+00 0.100D+01
 Coeff:      0.197D+00 0.803D+00
 Gap=     0.744 Goal=   None    Shift=    0.000
 RMSDP=2.96D-03 MaxDP=3.39D-02 DE=-1.03D-01 OVMax= 4.22D-02

 Cycle   3  Pass 1  IDiag  1:
 E= -40.1983582389028     Delta-E=       -0.017922431252 Rises=F Damp=F
 DIIS: error= 2.65D-03 at cycle   3 NSaved=   3.
 NSaved= 3 IEnMin= 3 EnMin= -40.1983582389028     IErMin= 3 ErrMin= 2.65D-03
 ErrMax= 2.65D-03  0.00D+00 EMaxC= 1.00D-01 BMatC= 2.68D-04 BMatP= 1.87D-02
 IDIUse=3 WtCom= 9.73D-01 WtEn= 2.65D-02
 Coeff-Com: -0.347D-01 0.294D-01 0.101D+01
 Coeff-En:   0.000D+00 0.000D+00 0.100D+01
 Coeff:     -0.337D-01 0.287D-01 0.101D+01
 Gap=     0.735 Goal=   None    Shift=    0.000
 RMSDP=4.38D-04 MaxDP=4.65D-03 DE=-1.79D-02 OVMax= 6.22D-03

 Cycle   4  Pass 1  IDiag  1:
 E= -40.1986993685708     Delta-E=       -0.000341129668 Rises=F Damp=F
 DIIS: error= 3.35D-04 at cycle   4 NSaved=   4.
 NSaved= 4 IEnMin= 4 EnMin= -40.1986993685708     IErMin= 4 ErrMin= 3.35D-04
 ErrMax= 3.35D-04  0.00D+00 EMaxC= 1.00D-01 BMatC= 3.24D-06 BMatP= 2.68D-04
 IDIUse=3 WtCom= 9.97D-01 WtEn= 3.35D-03
 Coeff-Com:  0.944D-02-0.228D-01-0.351D+00 0.136D+01
 Coeff-En:   0.000D+00 0.000D+00 0.000D+00 0.100D+01
 Coeff:      0.941D-02-0.227D-01-0.350D+00 0.136D+01
 Gap=     0.735 Goal=   None    Shift=    0.000
 RMSDP=1.03D-04 MaxDP=6.33D-04 DE=-3.41D-04 OVMax= 1.11D-03

 Cycle   5  Pass 1  IDiag  1:
 E= -40.1987064856353     Delta-E=       -0.000007117065 Rises=F Damp=F
 DIIS: error= 1.87D-05 at cycle   5 NSaved=   5.
 NSaved= 5 IEnMin= 5 EnMin= -40.1987064856353     IErMin= 5 ErrMin= 1.87D-05
 ErrMax= 1.87D-05  0.00D+00 EMaxC= 1.00D-01 BMatC= 1.98D-08 BMatP= 3.24D-06
 IDIUse=1 WtCom= 1.00D+00 WtEn= 0.00D+00
 Coeff-Com: -0.195D-02 0.495D-02 0.773D-01-0.346D+00 0.127D+01
 Coeff:     -0.195D-02 0.495D-02 0.773D-01-0.346D+00 0.127D+01
 Gap=     0.735 Goal=   None    Shift=    0.000
 RMSDP=1.30D-05 MaxDP=7.21D-05 DE=-7.12D-06 OVMax= 9.53D-05

 Cycle   6  Pass 1  IDiag  1:
 E= -40.1987065303562     Delta-E=       -0.000000044721 Rises=F Damp=F
 DIIS: error= 8.42D-07 at cycle   6 NSaved=   6.
 NSaved= 6 IEnMin= 6 EnMin= -40.1987065303562     IErMin= 6 ErrMin= 8.42D-07
 ErrMax= 8.42D-07  0.00D+00 EMaxC= 1.00D-01 BMatC= 2.39D-11 BMatP= 1.98D-08
 IDIUse=1 WtCom= 1.00D+00 WtEn= 0.00D+00
 Coeff-Com:  0.116D-03-0.266D-03-0.440D-02 0.199D-01-0.840D-01 0.107D+01
 Coeff:      0.116D-03-0.266D-03-0.440D-02 0.199D-01-0.840D-01 0.107D+01
 Gap=     0.735 Goal=   None    Shift=    0.000
 RMSDP=5.03D-07 MaxDP=2.95D-06 DE=-4.47D-08 OVMax= 2.39D-06

 Cycle   7  Pass 1  IDiag  1:
 E= -40.1987065303976     Delta-E=       -0.000000000041 Rises=F Damp=F
 DIIS: error= 1.40D-07 at cycle   7 NSaved=   7.
 NSaved= 7 IEnMin= 7 EnMin= -40.1987065303976     IErMin= 7 ErrMin= 1.40D-07
 ErrMax= 1.40D-07  0.00D+00 EMaxC= 1.00D-01 BMatC= 5.19D-13 BMatP= 2.39D-11
 IDIUse=1 WtCom= 1.00D+00 WtEn= 0.00D+00
 Coeff-Com:  0.356D-05-0.148D-04-0.165D-03 0.729D-03-0.212D-02-0.134D+00
 Coeff-Com:  0.114D+01
 Coeff:      0.356D-05-0.148D-04-0.165D-03 0.729D-03-0.212D-02-0.134D+00
 Coeff:      0.114D+01
 Gap=     0.735 Goal=   None    Shift=    0.000
 RMSDP=8.11D-08 MaxDP=4.66D-07 DE=-4.15D-11 OVMax= 3.82D-07

 Cycle   8  Pass 1  IDiag  1:
 E= -40.1987065303986     Delta-E=       -0.000000000001 Rises=F Damp=F
 DIIS: error= 1.41D-08 at cycle   8 NSaved=   8.
 NSaved= 8 IEnMin= 8 EnMin= -40.1987065303986     IErMin= 8 ErrMin= 1.41D-08
 ErrMax= 1.41D-08  0.00D+00 EMaxC= 1.00D-01 BMatC= 3.82D-15 BMatP= 5.19D-13
 IDIUse=1 WtCom= 1.00D+00 WtEn= 0.00D+00
 Coeff-Com:  0.654D-07 0.674D-06 0.320D-05-0.197D-04 0.558D-04 0.202D-01
 Coeff-Com: -0.197D+00 0.118D+01
 Coeff:      0.654D-07 0.674D-06 0.320D-05-0.197D-04 0.558D-04 0.202D-01
 Coeff:     -0.197D+00 0.118D+01
 Gap=     0.735 Goal=   None    Shift=    0.000
 RMSDP=4.47D-09 MaxDP=2.68D-08 DE=-1.01D-12 OVMax= 2.48D-08

 SCF Done:  E(RHF) =  -40.1987065304     A.U. after    8 cycles
            NFock=  8  Conv=0.45D-08     -V/T= 2.0027
 KE= 4.009101372117D+01 PE=-1.197363535547D+02 EE= 2.603830815244D+01
 Leave Link  502 at Thu Dec 16 11:32:12 2021, MaxMem=   536870912 cpu:               0.6 elap:               0.2
 (Enter /opt/gaussian/g16/sse4/g16/l601.exe)
 Copying SCF densities to generalized density rwf, IOpCl= 0 IROHF=0.

 **********************************************************************

            Population analysis using the SCF density.

 **********************************************************************

 Orbital symmetries:
       Occupied  (A) (A) (A) (A) (A)
       Virtual   (A) (A) (A) (A) (A) (A) (A) (A) (A) (A) (A) (A)
                 (A) (A) (A) (A) (A) (A) (A) (A) (A) (A) (A) (A)
                 (A) (A) (A) (A) (A)
 The electronic state is 1-A.
 Alpha  occ. eigenvalues --  -11.21723  -0.94110  -0.54201  -0.54201  -0.54201
 Alpha virt. eigenvalues --    0.19275   0.27368   0.27368   0.27368   0.58959
 Alpha virt. eigenvalues --    0.58959   0.58959   0.88807   0.88807   0.88807
 Alpha virt. eigenvalues --    0.93101   1.13122   1.13122   1.25607   1.68409
 Alpha virt. eigenvalues --    1.68409   1.68409   1.89131   1.89131   1.89131
 Alpha virt. eigenvalues --    2.20909   2.20909   2.20909   2.53972   2.53973
 Alpha virt. eigenvalues --    2.74226   2.78941   2.78942   2.78943
          Condensed to atoms (all electrons):
               1          2          3          4          5
     1  C    4.485605   0.414925   0.414925   0.414926   0.414925
     2  H    0.414925   0.615503  -0.022252  -0.022251  -0.022251
     3  H    0.414925  -0.022252   0.615503  -0.022251  -0.022251
     4  H    0.414926  -0.022251  -0.022251   0.615502  -0.022252
     5  H    0.414925  -0.022251  -0.022251  -0.022252   0.615502
 Mulliken charges:
               1
     1  C   -0.145307
     2  H    0.036327
     3  H    0.036327
     4  H    0.036327
     5  H    0.036327
 Sum of Mulliken charges =   0.00000
 Mulliken charges with hydrogens summed into heavy atoms:
               1
     1  C    0.000000
 Electronic spatial extent (au):  <R**2>=             35.6946
 Charge=              0.0000 electrons
 Dipole moment (field-independent basis, Debye):
    X=              0.0000    Y=             -0.0000    Z=             -0.0000  Tot=              0.0000
 Quadrupole moment (field-independent basis, Debye-Ang):
   XX=             -8.3638   YY=             -8.3638   ZZ=             -8.3638
   XY=             -0.0000   XZ=              0.0000   YZ=              0.0000
 Traceless Quadrupole moment (field-independent basis, Debye-Ang):
   XX=             -0.0000   YY=             -0.0000   ZZ=              0.0000
   XY=             -0.0000   XZ=              0.0000   YZ=              0.0000
 Octapole moment (field-independent basis, Debye-Ang**2):
  XXX=             -0.1885  YYY=              0.5815  ZZZ=              0.3175  XYY=              0.2535
  XXY=             -0.1898  XXZ=             -0.5367  XZZ=             -0.0649  YZZ=             -0.3917
  YYZ=              0.2191  XYZ=              0.1769
 Hexadecapole moment (field-independent basis, Debye-Ang**3):
 XXXX=            -15.5303 YYYY=            -15.3623 ZZZZ=            -15.7175 XXXY=             -0.1985
 XXXZ=              0.1895 YYYX=              0.2554 YYYZ=              0.1600 ZZZX=             -0.1019
 ZZZY=             -0.4102 XXYY=             -5.4064 XXZZ=             -5.0512 YYZZ=             -5.2192
 XXYZ=              0.2503 YYXZ=             -0.0876 ZZXY=             -0.0569
 N-N= 1.340832515069D+01 E-N=-1.197363536384D+02  KE= 4.009101372117D+01
 No NMR shielding tensors so no spin-rotation constants.
 Leave Link  601 at Thu Dec 16 11:32:12 2021, MaxMem=   536870912 cpu:               0.4 elap:               0.1
 (Enter /opt/gaussian/g16/sse4/g16/l701.exe)
 ... and contract with generalized density number  0.
 Compute integral first derivatives.
 Leave Link  701 at Thu Dec 16 11:32:12 2021, MaxMem=   536870912 cpu:               0.6 elap:               0.2
 (Enter /opt/gaussian/g16/sse4/g16/l702.exe)
 L702 exits ... SP integral derivatives will be done elsewhere.
 Leave Link  702 at Thu Dec 16 11:32:13 2021, MaxMem=   536870912 cpu:               0.1 elap:               0.1
 (Enter /opt/gaussian/g16/sse4/g16/l703.exe)
 Integral derivatives from FoFJK, PRISM(SPDF).
 Compute integral first derivatives, UseDBF=F ICtDFT=           0.
 Calling FoFJK, ICntrl=      2127 FMM=F ISym2X=0 I1Cent= 0 IOpClX= 0 NMat=1 NMatS=1 NMatT=0.
 FoFJK:  IHMeth= 1 ICntrl=    2127 DoSepK=F KAlg= 0 I1Cent=           0 FoldK=F
 IRaf=         0 NMat=       1 IRICut=       1 DoRegI=T DoRafI=F ISym2E= 0 IDoP0=0 IntGTp=1.
 FoFCou: FMM=F IPFlag=           0 FMFlag=      100000 FMFlg1=         800
         NFxFlg=           0 DoJE=F BraDBF=F KetDBF=F FulRan=T
         wScrn=  0.000000 ICntrl=      2127 IOpCl=  0 I1Cent=           0 NGrid=           0
         NMat0=    1 NMatS0=      1 NMatT0=    0 NMatD0=    1 NMtDS0=    0 NMtDT0=    0
 Symmetry not used in FoFCou.
 Leave Link  703 at Thu Dec 16 11:32:14 2021, MaxMem=   536870912 cpu:               0.7 elap:               0.2
 (Enter /opt/gaussian/g16/sse4/g16/l716.exe)
 Dipole        = 1.63128781D-06-1.95300895D-07-6.04163775D-07
 ***** Axes restored to original set *****
 -------------------------------------------------------------------
 Center     Atomic                   Forces (Hartrees/Bohr)
 Number     Number              X              Y              Z
 -------------------------------------------------------------------
      1        6          -0.000000086    0.000001053    0.000004494
      2        1          -0.001017348    0.000000448   -0.000000542
      3        1           0.000339088    0.000649582   -0.000708197
      4        1           0.000338425    0.000286882    0.000912066
      5        1           0.000339921   -0.000937966   -0.000207821
 -------------------------------------------------------------------
 Cartesian Forces:  Max     0.001017348 RMS     0.000525402
 Leave Link  716 at Thu Dec 16 11:32:14 2021, MaxMem=   536870912 cpu:               0.1 elap:               0.1
 (Enter /opt/gaussian/g16/sse4/g16/l103.exe)

 GradGradGradGradGradGradGradGradGradGradGradGradGradGradGradGradGradGrad
 Berny optimization.
 FormGI is forming the generalized inverse of G from B-inverse, IUseBI=4.
 Internal  Forces:  Max     0.001019076 RMS     0.000543842
 Search for a local minimum.
 Step number   1 out of a maximum of   24
 All quantities printed in internal units (Hartrees-Bohrs-Radians)
 RMS Force = .54384D-03 SwitMx=.10000D-02 MixMth= 2
 Mixed Optimization -- En-DIIS/RFO-DIIS
 Second derivative matrix not updated -- first step.
 The second derivative matrix:
                          R1        R2        R3        R4        A1
           R1           0.34560
           R2           0.00000   0.34559
           R3           0.00000   0.00000   0.34560
           R4           0.00000   0.00000   0.00000   0.34559
           A1           0.00000   0.00000   0.00000   0.00000   0.16000
           A2           0.00000   0.00000   0.00000   0.00000   0.00000
           A3           0.00000   0.00000   0.00000   0.00000   0.00000
           A4           0.00000   0.00000   0.00000   0.00000   0.00000
           A5           0.00000   0.00000   0.00000   0.00000   0.00000
           A6           0.00000   0.00000   0.00000   0.00000   0.00000
           D1           0.00000   0.00000   0.00000   0.00000   0.00000
           D2           0.00000   0.00000   0.00000   0.00000   0.00000
           D3           0.00000   0.00000   0.00000   0.00000   0.00000
           D4           0.00000   0.00000   0.00000   0.00000   0.00000
                          A2        A3        A4        A5        A6
           A2           0.16000
           A3           0.00000   0.16000
           A4           0.00000   0.00000   0.16000
           A5           0.00000   0.00000   0.00000   0.16000
           A6           0.00000   0.00000   0.00000   0.00000   0.16000
           D1           0.00000   0.00000   0.00000   0.00000   0.00000
           D2           0.00000   0.00000   0.00000   0.00000   0.00000
           D3           0.00000   0.00000   0.00000   0.00000   0.00000
           D4           0.00000   0.00000   0.00000   0.00000   0.00000
                          D1        D2        D3        D4
           D1           0.00230
           D2           0.00000   0.00230
           D3           0.00000   0.00000   0.00230
           D4           0.00000   0.00000   0.00000   0.00230
 ITU=  0
     Eigenvalues ---    0.05082   0.05715   0.08641   0.16000   0.16000
     Eigenvalues ---    0.34559   0.34559   0.34560   0.34560
 RFO step:  Lambda=-1.19813078D-05 EMin= 5.08229818D-02
 Linear search not attempted -- first point.
 Iteration  1 RMS(Cart)=  0.00157358 RMS(Int)=  0.00000000
 Iteration  2 RMS(Cart)=  0.00000000 RMS(Int)=  0.00000000
 ITry= 1 IFail=0 DXMaxC= 2.94D-03 DCOld= 1.00D+10 DXMaxT= 3.00D-01 DXLimC= 3.00D+00 Rises=F
 Variable       Old X    -DE/DX   Delta X   Delta X   Delta X     New X
                                 (Linear)    (Quad)   (Total)
    R1        2.06396  -0.00102   0.00000  -0.00294  -0.00294   2.06102
    R2        2.06396  -0.00102   0.00000  -0.00295  -0.00295   2.06102
    R3        2.06395  -0.00101   0.00000  -0.00293  -0.00293   2.06102
    R4        2.06396  -0.00102   0.00000  -0.00295  -0.00295   2.06101
    A1        1.91063   0.00000   0.00000   0.00001   0.00001   1.91063
    A2        1.91064  -0.00000   0.00000  -0.00000  -0.00000   1.91063
    A3        1.91064  -0.00000   0.00000  -0.00000  -0.00000   1.91063
    A4        1.91063  -0.00000   0.00000  -0.00000  -0.00000   1.91063
    A5        1.91064  -0.00000   0.00000  -0.00000  -0.00000   1.91063
    A6        1.91063   0.00000   0.00000   0.00000   0.00000   1.91063
    D1        2.09439   0.00000   0.00000   0.00000   0.00000   2.09439
    D2       -2.09439  -0.00000   0.00000  -0.00000  -0.00000  -2.09439
    D3        2.09440  -0.00000   0.00000  -0.00000  -0.00000   2.09440
    D4       -2.09440   0.00000   0.00000   0.00000   0.00000  -2.09440
         Item               Value     Threshold  Converged?
 Maximum Force            0.001019     0.000450     NO 
 RMS     Force            0.000544     0.000300     NO 
 Maximum Displacement     0.002944     0.001800     NO 
 RMS     Displacement     0.001574     0.001200     NO 
 Predicted change in Energy=-5.990654D-06
 Lowest energy point so far.  Saving SCF results.
 GradGradGradGradGradGradGradGradGradGradGradGradGradGradGradGradGradGrad

 Leave Link  103 at Thu Dec 16 11:32:15 2021, MaxMem=   536870912 cpu:               0.0 elap:               0.1
 (Enter /opt/gaussian/g16/sse4/g16/l202.exe)
                          Input orientation:                          
 ---------------------------------------------------------------------
 Center     Atomic      Atomic             Coordinates (Angstroms)
 Number     Number       Type             X           Y           Z
 ---------------------------------------------------------------------
      1          6           0        1.018250    0.093150    0.031472
      2          1           0        2.108892    0.093152    0.031469
      3          1           0        0.654707   -0.601805    0.789347
      4          1           0        0.654699   -0.215712   -0.949312
      5          1           0        0.654701    1.096964    0.254385
 ---------------------------------------------------------------------
                    Distance matrix (angstroms):
                    1          2          3          4          5
     1  C    0.000000
     2  H    1.090642   0.000000
     3  H    1.090642   1.781010   0.000000
     4  H    1.090643   1.781013   1.781012   0.000000
     5  H    1.090642   1.781011   1.781011   1.781012   0.000000
 Stoichiometry    CH4
 Framework group  C1[X(CH4)]
 Deg. of freedom     9
 Full point group                 C1      NOp   1
 RotChk:  IX=0 Diff= 1.66D+00
 Largest Abelian subgroup         C1      NOp   1
 Largest concise Abelian subgroup C1      NOp   1
                         Standard orientation:                         
 ---------------------------------------------------------------------
 Center     Atomic      Atomic             Coordinates (Angstroms)
 Number     Number       Type             X           Y           Z
 ---------------------------------------------------------------------
      1          6           0        0.000000    0.000000   -0.000000
      2          1           0       -0.617143    0.686406   -0.580932
      3          1           0       -0.345139   -0.012406    1.034517
      4          1           0        1.039273    0.329165   -0.032598
      5          1           0       -0.076992   -1.003166   -0.420986
 ---------------------------------------------------------------------
 Rotational constants (GHZ):         158.0880480         158.0878711         158.0878214
 Leave Link  202 at Thu Dec 16 11:32:16 2021, MaxMem=   536870912 cpu:               0.0 elap:               0.1
 (Enter /opt/gaussian/g16/sse4/g16/l301.exe)
 Standard basis: CC-pVDZ (5D, 7F)
 Ernie: Thresh=  0.10000D-02 Tol=  0.10000D-05 Strict=F.
 Ernie:  2 primitive shells out of 42 were deleted.
 There are    35 symmetry adapted cartesian basis functions of A   symmetry.
 There are    34 symmetry adapted basis functions of A   symmetry.
    34 basis functions,    61 primitive gaussians,    35 cartesian basis functions
     5 alpha electrons        5 beta electrons
       nuclear repulsion energy        13.4274771838 Hartrees.
 IExCor=    0 DFT=F Ex=HF Corr=None ExCW=0 ScaHFX=  1.000000
 ScaDFX=  1.000000  1.000000  1.000000  1.000000 ScalE2=  1.000000  1.000000
 IRadAn=      5 IRanWt=     -1 IRanGd=            0 ICorTp=0 IEmpDi=  4
 NAtoms=    5 NActive=    5 NUniq=    5 SFac= 1.00D+00 NAtFMM=   60 NAOKFM=F Big=F
 Integral buffers will be    131072 words long.
 Raffenetti 1 integral format.
 Two-electron integral symmetry is turned on.
 Leave Link  301 at Thu Dec 16 11:32:16 2021, MaxMem=   536870912 cpu:               0.2 elap:               0.1
 (Enter /opt/gaussian/g16/sse4/g16/l302.exe)
 NPDir=0 NMtPBC=     1 NCelOv=     1 NCel=       1 NClECP=     1 NCelD=      1
         NCelK=      1 NCelE2=     1 NClLst=     1 CellRange=     0.0.
 One-electron integrals computed using PRISM.
 One-electron integral symmetry used in STVInt
 NBasis=    34 RedAO= T EigKep=  2.34D-02  NBF=    34
 NBsUse=    34 1.00D-06 EigRej= -1.00D+00 NBFU=    34
 Leave Link  302 at Thu Dec 16 11:32:16 2021, MaxMem=   536870912 cpu:               0.4 elap:               0.1
 (Enter /opt/gaussian/g16/sse4/g16/l303.exe)
 DipDrv:  MaxL=1.
 Leave Link  303 at Thu Dec 16 11:32:16 2021, MaxMem=   536870912 cpu:               0.1 elap:               0.0
 (Enter /opt/gaussian/g16/sse4/g16/l401.exe)
 Initial guess from the checkpoint file:  "HF_Methane_gaus.chk"
 B after Tr=    -0.000000    0.000000   -0.000000
         Rot=    0.808597    0.310022    0.220101   -0.449012 Ang=  72.08 deg.
 Guess basis will be translated and rotated to current coordinates.
 JPrj=2 DoOrth=T DoCkMO=T.
 Leave Link  401 at Thu Dec 16 11:32:16 2021, MaxMem=   536870912 cpu:               0.3 elap:               0.1
 (Enter /opt/gaussian/g16/sse4/g16/l502.exe)
 Keep R1 ints in memory in canonical form, NReq=1015658.
 FoFCou: FMM=F IPFlag=           0 FMFlag=           0 FMFlg1=           0
         NFxFlg=           0 DoJE=F BraDBF=F KetDBF=F FulRan=T
         wScrn=  0.000000 ICntrl=       600 IOpCl=  0 I1Cent=           0 NGrid=           0
         NMat0=    1 NMatS0=    595 NMatT0=    0 NMatD0=    1 NMtDS0=    0 NMtDT0=    0
 Symmetry not used in FoFCou.
 Two-electron integral symmetry not used.
 Closed shell SCF:
 Using DIIS extrapolation, IDIIS=  1040.
 NGot=   536870912 LenX=   536690353 LenY=   536688687
 Requested convergence on RMS density matrix=1.00D-08 within 128 cycles.
 Requested convergence on MAX density matrix=1.00D-06.
 Requested convergence on             energy=1.00D-06.
 No special actions if energy rises.

 Cycle   1  Pass 1  IDiag  1:
 E= -40.1987104874508    
 DIIS: error= 2.62D-04 at cycle   1 NSaved=   1.
 NSaved= 1 IEnMin= 1 EnMin= -40.1987104874508     IErMin= 1 ErrMin= 2.62D-04
 ErrMax= 2.62D-04  0.00D+00 EMaxC= 1.00D-01 BMatC= 1.09D-06 BMatP= 1.09D-06
 IDIUse=3 WtCom= 9.97D-01 WtEn= 2.62D-03
 Coeff-Com:  0.100D+01
 Coeff-En:   0.100D+01
 Coeff:      0.100D+01
 Gap=     1.053 Goal=   None    Shift=    0.000
 RMSDP=3.71D-05 MaxDP=4.18D-04              OVMax= 3.55D-04

 Cycle   2  Pass 1  IDiag  1:
 E= -40.1987118246017     Delta-E=       -0.000001337151 Rises=F Damp=F
 DIIS: error= 7.24D-05 at cycle   2 NSaved=   2.
 NSaved= 2 IEnMin= 2 EnMin= -40.1987118246017     IErMin= 2 ErrMin= 7.24D-05
 ErrMax= 7.24D-05  0.00D+00 EMaxC= 1.00D-01 BMatC= 9.19D-08 BMatP= 1.09D-06
 IDIUse=1 WtCom= 1.00D+00 WtEn= 0.00D+00
 Coeff-Com:  0.289D-01 0.971D+00
 Coeff:      0.289D-01 0.971D+00
 Gap=     0.735 Goal=   None    Shift=    0.000
 RMSDP=7.66D-06 MaxDP=9.25D-05 DE=-1.34D-06 OVMax= 1.21D-04

 Cycle   3  Pass 1  IDiag  1:
 E= -40.1987119122858     Delta-E=       -0.000000087684 Rises=F Damp=F
 DIIS: error= 1.70D-05 at cycle   3 NSaved=   3.
 NSaved= 3 IEnMin= 3 EnMin= -40.1987119122858     IErMin= 3 ErrMin= 1.70D-05
 ErrMax= 1.70D-05  0.00D+00 EMaxC= 1.00D-01 BMatC= 7.84D-09 BMatP= 9.19D-08
 IDIUse=1 WtCom= 1.00D+00 WtEn= 0.00D+00
 Coeff-Com: -0.617D-01 0.166D+00 0.896D+00
 Coeff:     -0.617D-01 0.166D+00 0.896D+00
 Gap=     0.735 Goal=   None    Shift=    0.000
 RMSDP=2.34D-06 MaxDP=2.44D-05 DE=-8.77D-08 OVMax= 3.11D-05

 Cycle   4  Pass 1  IDiag  1:
 E= -40.1987119218612     Delta-E=       -0.000000009575 Rises=F Damp=F
 DIIS: error= 1.69D-06 at cycle   4 NSaved=   4.
 NSaved= 4 IEnMin= 4 EnMin= -40.1987119218612     IErMin= 4 ErrMin= 1.69D-06
 ErrMax= 1.69D-06  0.00D+00 EMaxC= 1.00D-01 BMatC= 5.85D-11 BMatP= 7.84D-09
 IDIUse=1 WtCom= 1.00D+00 WtEn= 0.00D+00
 Coeff-Com:  0.136D-01-0.456D-01-0.229D+00 0.126D+01
 Coeff:      0.136D-01-0.456D-01-0.229D+00 0.126D+01
 Gap=     0.735 Goal=   None    Shift=    0.000
 RMSDP=2.89D-07 MaxDP=1.98D-06 DE=-9.58D-09 OVMax= 3.77D-06

 Cycle   5  Pass 1  IDiag  1:
 E= -40.1987119219774     Delta-E=       -0.000000000116 Rises=F Damp=F
 DIIS: error= 1.69D-07 at cycle   5 NSaved=   5.
 NSaved= 5 IEnMin= 5 EnMin= -40.1987119219774     IErMin= 5 ErrMin= 1.69D-07
 ErrMax= 1.69D-07  0.00D+00 EMaxC= 1.00D-01 BMatC= 4.99D-13 BMatP= 5.85D-11
 IDIUse=1 WtCom= 1.00D+00 WtEn= 0.00D+00
 Coeff-Com: -0.231D-02 0.824D-02 0.394D-01-0.266D+00 0.122D+01
 Coeff:     -0.231D-02 0.824D-02 0.394D-01-0.266D+00 0.122D+01
 Gap=     0.735 Goal=   None    Shift=    0.000
 RMSDP=4.75D-08 MaxDP=2.71D-07 DE=-1.16D-10 OVMax= 4.42D-07

 Cycle   6  Pass 1  IDiag  1:
 E= -40.1987119219784     Delta-E=       -0.000000000001 Rises=F Damp=F
 DIIS: error= 2.31D-08 at cycle   6 NSaved=   6.
 NSaved= 6 IEnMin= 6 EnMin= -40.1987119219784     IErMin= 6 ErrMin= 2.31D-08
 ErrMax= 2.31D-08  0.00D+00 EMaxC= 1.00D-01 BMatC= 1.13D-14 BMatP= 4.99D-13
 IDIUse=1 WtCom= 1.00D+00 WtEn= 0.00D+00
 Coeff-Com:  0.541D-03-0.186D-02-0.978D-02 0.664D-01-0.369D+00 0.131D+01
 Coeff:      0.541D-03-0.186D-02-0.978D-02 0.664D-01-0.369D+00 0.131D+01
 Gap=     0.735 Goal=   None    Shift=    0.000
 RMSDP=8.06D-09 MaxDP=5.73D-08 DE=-1.09D-12 OVMax= 5.93D-08

 SCF Done:  E(RHF) =  -40.1987119220     A.U. after    6 cycles
            NFock=  6  Conv=0.81D-08     -V/T= 2.0025
 KE= 4.009972839325D+01 PE=-1.197811828882D+02 EE= 2.605526538914D+01
 Leave Link  502 at Thu Dec 16 11:32:17 2021, MaxMem=   536870912 cpu:               0.8 elap:               0.3
 (Enter /opt/gaussian/g16/sse4/g16/l701.exe)
 ... and contract with generalized density number  0.
 Compute integral first derivatives.
 Leave Link  701 at Thu Dec 16 11:32:17 2021, MaxMem=   536870912 cpu:               0.5 elap:               0.2
 (Enter /opt/gaussian/g16/sse4/g16/l702.exe)
 L702 exits ... SP integral derivatives will be done elsewhere.
 Leave Link  702 at Thu Dec 16 11:32:18 2021, MaxMem=   536870912 cpu:               0.1 elap:               0.0
 (Enter /opt/gaussian/g16/sse4/g16/l703.exe)
 Integral derivatives from FoFJK, PRISM(SPDF).
 Compute integral first derivatives, UseDBF=F ICtDFT=           0.
 Calling FoFJK, ICntrl=      2127 FMM=F ISym2X=0 I1Cent= 0 IOpClX= 0 NMat=1 NMatS=1 NMatT=0.
 FoFJK:  IHMeth= 1 ICntrl=    2127 DoSepK=F KAlg= 0 I1Cent=           0 FoldK=F
 IRaf=         0 NMat=       1 IRICut=       1 DoRegI=T DoRafI=F ISym2E= 0 IDoP0=0 IntGTp=1.
 FoFCou: FMM=F IPFlag=           0 FMFlag=      100000 FMFlg1=         800
         NFxFlg=           0 DoJE=F BraDBF=F KetDBF=F FulRan=T
         wScrn=  0.000000 ICntrl=      2127 IOpCl=  0 I1Cent=           0 NGrid=           0
         NMat0=    1 NMatS0=      1 NMatT0=    0 NMatD0=    1 NMtDS0=    0 NMtDT0=    0
 Symmetry not used in FoFCou.
 Leave Link  703 at Thu Dec 16 11:32:18 2021, MaxMem=   536870912 cpu:               0.7 elap:               0.2
 (Enter /opt/gaussian/g16/sse4/g16/l716.exe)
 Dipole        =-3.44930463D-07-2.12858077D-07 1.18452007D-07
 ***** Axes restored to original set *****
 -------------------------------------------------------------------
 Center     Atomic                   Forces (Hartrees/Bohr)
 Number     Number              X              Y              Z
 -------------------------------------------------------------------
      1        6           0.000000015   -0.000000115    0.000000033
      2        1           0.000103282    0.000000013   -0.000000175
      3        1          -0.000034537   -0.000065925    0.000071757
      4        1          -0.000034278   -0.000029206   -0.000092686
      5        1          -0.000034481    0.000095234    0.000021071
 -------------------------------------------------------------------
 Cartesian Forces:  Max     0.000103282 RMS     0.000053339
 Leave Link  716 at Thu Dec 16 11:32:19 2021, MaxMem=   536870912 cpu:               0.1 elap:               0.0
 (Enter /opt/gaussian/g16/sse4/g16/l103.exe)

 GradGradGradGradGradGradGradGradGradGradGradGradGradGradGradGradGradGrad
 Berny optimization.
 Using GEDIIS/GDIIS optimizer.
 FormGI is forming the generalized inverse of G from B-inverse, IUseBI=4.
 Internal  Forces:  Max     0.000103453 RMS     0.000055212
 Search for a local minimum.
 Step number   2 out of a maximum of   24
 All quantities printed in internal units (Hartrees-Bohrs-Radians)
 RMS Force = .55212D-04 SwitMx=.10000D-02 MixMth= 2
 Mixed Optimization -- En-DIIS/RFO-DIIS
 Swapping is turned off.
 Update second derivatives using D2CorX and points    1    2
 DE= -5.39D-06 DEPred=-5.99D-06 R= 9.00D-01
 TightC=F SS=  1.41D+00  RLast= 5.89D-03 DXNew= 5.0454D-01 1.7663D-02
 Trust test= 9.00D-01 RLast= 5.89D-03 DXMaxT set to 3.00D-01
 The second derivative matrix:
                          R1        R2        R3        R4        A1
           R1           0.35437
           R2           0.00878   0.35438
           R3           0.00875   0.00876   0.35433
           R4           0.00879   0.00880   0.00877   0.35440
           A1           0.00004   0.00004   0.00004   0.00004   0.16000
           A2          -0.00002  -0.00002  -0.00002  -0.00002   0.00000
           A3          -0.00001  -0.00001  -0.00001  -0.00001   0.00000
           A4          -0.00000  -0.00000  -0.00000  -0.00000   0.00000
           A5           0.00000   0.00000   0.00000   0.00000   0.00000
           A6          -0.00002  -0.00002  -0.00002  -0.00002  -0.00000
           D1          -0.00003  -0.00003  -0.00003  -0.00003   0.00000
           D2           0.00000   0.00000   0.00000   0.00000  -0.00000
           D3           0.00000   0.00000   0.00000   0.00000  -0.00000
           D4           0.00000   0.00000   0.00000   0.00000  -0.00000
                          A2        A3        A4        A5        A6
           A2           0.16000
           A3          -0.00000   0.16000
           A4          -0.00000  -0.00000   0.16000
           A5          -0.00000  -0.00000  -0.00000   0.16000
           A6           0.00000   0.00000  -0.00000  -0.00000   0.16000
           D1          -0.00000  -0.00000  -0.00000  -0.00000   0.00000
           D2           0.00000   0.00000   0.00000   0.00000  -0.00000
           D3           0.00000   0.00000   0.00000   0.00000  -0.00000
           D4           0.00000   0.00000   0.00000   0.00000  -0.00000
                          D1        D2        D3        D4
           D1           0.00230
           D2          -0.00000   0.00230
           D3          -0.00000   0.00000   0.00230
           D4          -0.00000   0.00000   0.00000   0.00230
 ITU=  1  0
     Eigenvalues ---    0.05082   0.05715   0.08641   0.16000   0.16000
     Eigenvalues ---    0.34559   0.34560   0.34560   0.38069
 En-DIIS/RFO-DIIS/Sim-DIIS IScMMF=       -3 using points:     2    1
 RFO step:  Lambda=-1.12101695D-07.
 NNeg= 0 NGDIIS= 2 SimSw=  2.50D-03 Rises=F DC= -5.39D-06 SmlDif=  1.00D-05
 NRisDI= 0 DoIntr=F SqrtH=F CThrHd= 10.0 CDAdj=  3.0
 RMS Error=  0.1450304239D-03 NUsed= 2 OKEnD=F EnDIS=F
 InvSVX:  RCond= 3.90D-05 Info=           0 Equed=N FErr=  9.70D-16 BErr=  0.00D+00
 DidBck=F Rises=F RFO-DIIS coefs:    0.90784    0.09216
 Iteration  1 RMS(Cart)=  0.00014503 RMS(Int)=  0.00000000
 Iteration  2 RMS(Cart)=  0.00000000 RMS(Int)=  0.00000000
 ITry= 1 IFail=0 DXMaxC= 2.71D-04 DCOld= 1.00D+10 DXMaxT= 3.00D-01 DXLimC= 3.00D+00 Rises=F
 Variable       Old X    -DE/DX   Delta X   Delta X   Delta X     New X
                                 (Linear)    (Quad)   (Total)
    R1        2.06102   0.00010   0.00027   0.00000   0.00027   2.06129
    R2        2.06102   0.00010   0.00027  -0.00000   0.00027   2.06129
    R3        2.06102   0.00010   0.00027   0.00000   0.00027   2.06129
    R4        2.06101   0.00010   0.00027  -0.00000   0.00027   2.06129
    A1        1.91063   0.00000  -0.00000   0.00000   0.00000   1.91063
    A2        1.91063  -0.00000   0.00000  -0.00000  -0.00000   1.91063
    A3        1.91063   0.00000   0.00000  -0.00000   0.00000   1.91063
    A4        1.91063  -0.00000   0.00000  -0.00000  -0.00000   1.91063
    A5        1.91063   0.00000   0.00000   0.00000   0.00000   1.91063
    A6        1.91063   0.00000  -0.00000   0.00000  -0.00000   1.91063
    D1        2.09439  -0.00000  -0.00000   0.00000   0.00000   2.09439
    D2       -2.09439  -0.00000   0.00000  -0.00000  -0.00000  -2.09439
    D3        2.09440  -0.00000   0.00000  -0.00000  -0.00000   2.09440
    D4       -2.09440   0.00000  -0.00000   0.00000   0.00000  -2.09440
         Item               Value     Threshold  Converged?
 Maximum Force            0.000103     0.000450     YES
 RMS     Force            0.000055     0.000300     YES
 Maximum Displacement     0.000271     0.001800     YES
 RMS     Displacement     0.000145     0.001200     YES
 Predicted change in Energy=-5.605085D-08
 Optimization completed.
    -- Stationary point found.
                           ----------------------------
                           !   Optimized Parameters   !
                           ! (Angstroms and Degrees)  !
 --------------------------                            --------------------------
 ! Name  Definition              Value          Derivative Info.                !
 --------------------------------------------------------------------------------
 ! R1    R(1,2)                  1.0906         -DE/DX =    0.0001              !
 ! R2    R(1,3)                  1.0906         -DE/DX =    0.0001              !
 ! R3    R(1,4)                  1.0906         -DE/DX =    0.0001              !
 ! R4    R(1,5)                  1.0906         -DE/DX =    0.0001              !
 ! A1    A(2,1,3)              109.4711         -DE/DX =    0.0                 !
 ! A2    A(2,1,4)              109.4713         -DE/DX =    0.0                 !
 ! A3    A(2,1,5)              109.4712         -DE/DX =    0.0                 !
 ! A4    A(3,1,4)              109.4713         -DE/DX =    0.0                 !
 ! A5    A(3,1,5)              109.4712         -DE/DX =    0.0                 !
 ! A6    A(4,1,5)              109.4712         -DE/DX =    0.0                 !
 ! D1    D(2,1,4,3)            120.0            -DE/DX =    0.0                 !
 ! D2    D(2,1,5,3)           -119.9999         -DE/DX =    0.0                 !
 ! D3    D(2,1,5,4)            120.0001         -DE/DX =    0.0                 !
 ! D4    D(3,1,5,4)           -120.0            -DE/DX =    0.0                 !
 --------------------------------------------------------------------------------
 Lowest energy point so far.  Saving SCF results.
 Largest change from initial coordinates is atom    5       1.279 Angstoms.
 GradGradGradGradGradGradGradGradGradGradGradGradGradGradGradGradGradGrad

 Leave Link  103 at Thu Dec 16 11:32:19 2021, MaxMem=   536870912 cpu:               0.0 elap:               0.0
 (Enter /opt/gaussian/g16/sse4/g16/l202.exe)
                          Input orientation:                          
 ---------------------------------------------------------------------
 Center     Atomic      Atomic             Coordinates (Angstroms)
 Number     Number       Type             X           Y           Z
 ---------------------------------------------------------------------
      1          6           0        1.018250    0.093150    0.031472
      2          1           0        2.108892    0.093152    0.031469
      3          1           0        0.654707   -0.601805    0.789347
      4          1           0        0.654699   -0.215712   -0.949312
      5          1           0        0.654701    1.096964    0.254385
 ---------------------------------------------------------------------
                    Distance matrix (angstroms):
                    1          2          3          4          5
     1  C    0.000000
     2  H    1.090642   0.000000
     3  H    1.090642   1.781010   0.000000
     4  H    1.090643   1.781013   1.781012   0.000000
     5  H    1.090642   1.781011   1.781011   1.781012   0.000000
 Stoichiometry    CH4
 Framework group  C1[X(CH4)]
 Deg. of freedom     9
 Full point group                 C1      NOp   1
 RotChk:  IX=0 Diff= 3.43D-09
 Largest Abelian subgroup         C1      NOp   1
 Largest concise Abelian subgroup C1      NOp   1
                         Standard orientation:                         
 ---------------------------------------------------------------------
 Center     Atomic      Atomic             Coordinates (Angstroms)
 Number     Number       Type             X           Y           Z
 ---------------------------------------------------------------------
      1          6           0        0.000000    0.000000   -0.000000
      2          1           0       -0.617143    0.686406   -0.580932
      3          1           0       -0.345139   -0.012406    1.034517
      4          1           0        1.039273    0.329165   -0.032598
      5          1           0       -0.076992   -1.003166   -0.420986
 ---------------------------------------------------------------------
 Rotational constants (GHZ):         158.0880480         158.0878711         158.0878214
 Leave Link  202 at Thu Dec 16 11:32:19 2021, MaxMem=   536870912 cpu:               0.0 elap:               0.0
 (Enter /opt/gaussian/g16/sse4/g16/l601.exe)
 Copying SCF densities to generalized density rwf, IOpCl= 0 IROHF=0.

 **********************************************************************

            Population analysis using the SCF density.

 **********************************************************************

 Orbital symmetries:
       Occupied  (A) (A) (A) (A) (A)
       Virtual   (A) (A) (A) (A) (A) (A) (A) (A) (A) (A) (A) (A)
                 (A) (A) (A) (A) (A) (A) (A) (A) (A) (A) (A) (A)
                 (A) (A) (A) (A) (A)
 The electronic state is 1-A.
 Alpha  occ. eigenvalues --  -11.21651  -0.94174  -0.54240  -0.54240  -0.54240
 Alpha virt. eigenvalues --    0.19294   0.27392   0.27392   0.27392   0.58950
 Alpha virt. eigenvalues --    0.58950   0.58950   0.88883   0.88883   0.88883
 Alpha virt. eigenvalues --    0.93289   1.13144   1.13144   1.25632   1.68535
 Alpha virt. eigenvalues --    1.68535   1.68535   1.89288   1.89288   1.89288
 Alpha virt. eigenvalues --    2.21057   2.21057   2.21058   2.54229   2.54229
 Alpha virt. eigenvalues --    2.74688   2.79284   2.79284   2.79284
          Condensed to atoms (all electrons):
               1          2          3          4          5
     1  C    4.482601   0.415180   0.415180   0.415180   0.415180
     2  H    0.415180   0.615714  -0.022241  -0.022241  -0.022241
     3  H    0.415180  -0.022241   0.615714  -0.022241  -0.022241
     4  H    0.415180  -0.022241  -0.022241   0.615714  -0.022241
     5  H    0.415180  -0.022241  -0.022241  -0.022241   0.615714
 Mulliken charges:
               1
     1  C   -0.143321
     2  H    0.035830
     3  H    0.035830
     4  H    0.035830
     5  H    0.035830
 Sum of Mulliken charges =  -0.00000
 Mulliken charges with hydrogens summed into heavy atoms:
               1
     1  C   -0.000000
 Electronic spatial extent (au):  <R**2>=             35.6347
 Charge=             -0.0000 electrons
 Dipole moment (field-independent basis, Debye):
    X=             -0.0000    Y=             -0.0000    Z=              0.0000  Tot=              0.0000
 Quadrupole moment (field-independent basis, Debye-Ang):
   XX=             -8.3587   YY=             -8.3587   ZZ=             -8.3587
   XY=             -0.0000   XZ=              0.0000   YZ=              0.0000
 Traceless Quadrupole moment (field-independent basis, Debye-Ang):
   XX=              0.0000   YY=             -0.0000   ZZ=             -0.0000
   XY=             -0.0000   XZ=              0.0000   YZ=              0.0000
 Octapole moment (field-independent basis, Debye-Ang**2):
  XXX=              0.5367  YYY=             -0.4127  ZZZ=              0.5308  XYY=             -0.1622
  XXY=              0.3868  XXZ=             -0.0861  XZZ=             -0.3745  YZZ=              0.0260
  YYZ=             -0.4446  XYZ=              0.1313
 Hexadecapole moment (field-independent basis, Debye-Ang**3):
 XXXX=            -15.3244 YYYY=            -15.4190 ZZZZ=            -15.3663 XXXY=              0.2491
 XXXZ=              0.0686 YYYX=             -0.1010 YYYZ=              0.2811 ZZZX=             -0.3042
 ZZZY=             -0.0875 XXYY=             -5.2743 XXZZ=             -5.3270 YYZZ=             -5.2324
 XXYZ=             -0.1935 YYXZ=              0.2356 ZZXY=             -0.1481
 N-N= 1.342747718380D+01 E-N=-1.197811829751D+02  KE= 4.009972839325D+01
 No NMR shielding tensors so no spin-rotation constants.
 Leave Link  601 at Thu Dec 16 11:32:19 2021, MaxMem=   536870912 cpu:               0.5 elap:               0.1
 (Enter /opt/gaussian/g16/sse4/g16/l9999.exe)
 1\1\GINC-NODE681\FOpt\RHF\CC-pVDZ\C1H4\THEOB\16-Dec-2021\0\\#p opt fre
 q hf/cc-pvdz geom=connectivity polar\\Methane.xyz\\0,1\C,1.0182499902,
 0.0931499879,0.0314715339\H,2.1088922802,0.0931523278,0.0314689144\H,0
 .6547072619,-0.6018045416,0.7893470328\H,0.6546992242,-0.2157115793,-0
 .9493121149\H,0.6547012435,1.0969638051,0.2543846338\\Version=ES64L-G1
 6RevA.03\State=1-A\HF=-40.1987119\RMSD=8.059e-09\RMSF=5.334e-05\Dipole
 =0.,0.,0.0000004\Quadrupole=0.,-0.0000013,0.0000013,-0.0000003,0.00000
 21,0.0000008\PG=C01 [X(C1H4)]\\@


 SUCCESS IS COUNTED SWEETEST
 BY THOSE WHO NE'ER SUCCEED.
 TO COMPREHEND NECTAR
 REQUIRES SOREST NEED.
           EMILY DICKINSON
 Leave Link 9999 at Thu Dec 16 11:32:19 2021, MaxMem=   536870912 cpu:               0.1 elap:               0.0
 Job cpu time:       0 days  0 hours  0 minutes  9.1 seconds.
 Elapsed time:       0 days  0 hours  0 minutes  3.0 seconds.
 File lengths (MBytes):  RWF=      6 Int=      0 D2E=      0 Chk=      2 Scr=      1
 Normal termination of Gaussian 16 at Thu Dec 16 11:32:20 2021.
 (Enter /opt/gaussian/g16/sse4/g16/l1.exe)
 Link1:  Proceeding to internal job step number  2.
 ----------------------------------------------------------------
 #P Geom=AllCheck Guess=TCheck SCRF=Check GenChk RHF/CC-pVDZ Freq
 ----------------------------------------------------------------
 1/10=4,29=7,30=1,38=1,40=1/1,3;
 2/12=2,40=1/2;
 3/5=16,11=1,14=-4,25=1,30=1,70=2,71=2,116=1,140=1/1,2,3;
 4/5=101/1;
 5/5=2,38=6,98=1/2;
 8/6=4,10=90,11=11/1;
 10/13=10,15=4/2;
 11/6=3,8=1,9=11,15=111,16=1/1,2,10;
 10/6=1/2;
 6/7=2,8=2,9=2,10=2,28=1/1;
 7/8=1,10=1,25=1/1,2,3,16;
 1/10=4,30=1/3;
 99//99;
 Leave Link    1 at Thu Dec 16 11:32:20 2021, MaxMem=   536870912 cpu:               0.2 elap:               0.1
 (Enter /opt/gaussian/g16/sse4/g16/l101.exe)
 Structure from the checkpoint file:  "HF_Methane_gaus.chk"
 -----------
 Methane.xyz
 -----------
 Charge =  0 Multiplicity = 1
 Redundant internal coordinates found in file.  (old form).
 C,0,1.0182499902,0.0931499879,0.0314715339
 H,0,2.1088922802,0.0931523278,0.0314689144
 H,0,0.6547072619,-0.6018045416,0.7893470328
 H,0,0.6546992242,-0.2157115793,-0.9493121149
 H,0,0.6547012435,1.0969638051,0.2543846338
 Recover connectivity data from disk.
 ITRead=  0  0  0  0  0
 MicOpt= -1 -1 -1 -1 -1
 NAtoms=      5 NQM=        5 NQMF=       0 NMMI=      0 NMMIF=      0
                NMic=       0 NMicF=      0.
                    Isotopes and Nuclear Properties:
 (Nuclear quadrupole moments (NQMom) in fm**2, nuclear magnetic moments (NMagM)
  in nuclear magnetons)

  Atom         1           2           3           4           5
 IAtWgt=          12           1           1           1           1
 AtmWgt=  12.0000000   1.0078250   1.0078250   1.0078250   1.0078250
 NucSpn=           0           1           1           1           1
 AtZEff=   3.6000000   1.0000000   1.0000000   1.0000000   1.0000000
 NQMom=    0.0000000   0.0000000   0.0000000   0.0000000   0.0000000
 NMagM=    0.0000000   2.7928460   2.7928460   2.7928460   2.7928460
 AtZNuc=   6.0000000   1.0000000   1.0000000   1.0000000   1.0000000
 Leave Link  101 at Thu Dec 16 11:32:20 2021, MaxMem=   536870912 cpu:               0.8 elap:               0.2
 (Enter /opt/gaussian/g16/sse4/g16/l103.exe)

 GradGradGradGradGradGradGradGradGradGradGradGradGradGradGradGradGradGrad
 Berny optimization.
 Initialization pass.
                           ----------------------------
                           !    Initial Parameters    !
                           ! (Angstroms and Degrees)  !
 --------------------------                            --------------------------
 ! Name  Definition              Value          Derivative Info.                !
 --------------------------------------------------------------------------------
 ! R1    R(1,2)                  1.0906         calculate D2E/DX2 analytically  !
 ! R2    R(1,3)                  1.0906         calculate D2E/DX2 analytically  !
 ! R3    R(1,4)                  1.0906         calculate D2E/DX2 analytically  !
 ! R4    R(1,5)                  1.0906         calculate D2E/DX2 analytically  !
 ! A1    A(2,1,3)              109.4711         calculate D2E/DX2 analytically  !
 ! A2    A(2,1,4)              109.4713         calculate D2E/DX2 analytically  !
 ! A3    A(2,1,5)              109.4712         calculate D2E/DX2 analytically  !
 ! A4    A(3,1,4)              109.4713         calculate D2E/DX2 analytically  !
 ! A5    A(3,1,5)              109.4712         calculate D2E/DX2 analytically  !
 ! A6    A(4,1,5)              109.4712         calculate D2E/DX2 analytically  !
 ! D1    D(2,1,4,3)            120.0            calculate D2E/DX2 analytically  !
 ! D2    D(2,1,5,3)           -119.9999         calculate D2E/DX2 analytically  !
 ! D3    D(2,1,5,4)            120.0001         calculate D2E/DX2 analytically  !
 ! D4    D(3,1,5,4)           -120.0            calculate D2E/DX2 analytically  !
 --------------------------------------------------------------------------------
 Trust Radius=3.00D-01 FncErr=1.00D-07 GrdErr=1.00D-07 EigMax=2.50D+02 EigMin=1.00D-04
 Number of steps in this run=      2 maximum allowed number of steps=      2.
 GradGradGradGradGradGradGradGradGradGradGradGradGradGradGradGradGradGrad

 Leave Link  103 at Thu Dec 16 11:32:20 2021, MaxMem=   536870912 cpu:               0.0 elap:               0.0
 (Enter /opt/gaussian/g16/sse4/g16/l202.exe)
                          Input orientation:                          
 ---------------------------------------------------------------------
 Center     Atomic      Atomic             Coordinates (Angstroms)
 Number     Number       Type             X           Y           Z
 ---------------------------------------------------------------------
      1          6           0        1.018250    0.093150    0.031472
      2          1           0        2.108892    0.093152    0.031469
      3          1           0        0.654707   -0.601805    0.789347
      4          1           0        0.654699   -0.215712   -0.949312
      5          1           0        0.654701    1.096964    0.254385
 ---------------------------------------------------------------------
                    Distance matrix (angstroms):
                    1          2          3          4          5
     1  C    0.000000
     2  H    1.090642   0.000000
     3  H    1.090642   1.781010   0.000000
     4  H    1.090643   1.781013   1.781012   0.000000
     5  H    1.090642   1.781011   1.781011   1.781012   0.000000
 Stoichiometry    CH4
 Framework group  C1[X(CH4)]
 Deg. of freedom     9
 Full point group                 C1      NOp   1
 RotChk:  IX=0 Diff= 9.20D-10
 Largest Abelian subgroup         C1      NOp   1
 Largest concise Abelian subgroup C1      NOp   1
                         Standard orientation:                         
 ---------------------------------------------------------------------
 Center     Atomic      Atomic             Coordinates (Angstroms)
 Number     Number       Type             X           Y           Z
 ---------------------------------------------------------------------
      1          6           0        0.000000    0.000000   -0.000000
      2          1           0       -0.617143    0.686406   -0.580932
      3          1           0       -0.345139   -0.012406    1.034517
      4          1           0        1.039273    0.329165   -0.032598
      5          1           0       -0.076992   -1.003166   -0.420986
 ---------------------------------------------------------------------
 Rotational constants (GHZ):         158.0880480         158.0878711         158.0878214
 Leave Link  202 at Thu Dec 16 11:32:20 2021, MaxMem=   536870912 cpu:               0.0 elap:               0.1
 (Enter /opt/gaussian/g16/sse4/g16/l301.exe)
 Standard basis: CC-pVDZ (5D, 7F)
 Ernie: Thresh=  0.10000D-02 Tol=  0.10000D-05 Strict=F.
 Ernie:  2 primitive shells out of 42 were deleted.
 There are    35 symmetry adapted cartesian basis functions of A   symmetry.
 There are    34 symmetry adapted basis functions of A   symmetry.
    34 basis functions,    61 primitive gaussians,    35 cartesian basis functions
     5 alpha electrons        5 beta electrons
       nuclear repulsion energy        13.4274771838 Hartrees.
 IExCor=    0 DFT=F Ex=HF Corr=None ExCW=0 ScaHFX=  1.000000
 ScaDFX=  1.000000  1.000000  1.000000  1.000000 ScalE2=  1.000000  1.000000
 IRadAn=      5 IRanWt=     -1 IRanGd=            0 ICorTp=0 IEmpDi=  4
 NAtoms=    5 NActive=    5 NUniq=    5 SFac= 1.00D+00 NAtFMM=   60 NAOKFM=F Big=F
 Integral buffers will be    131072 words long.
 Raffenetti 1 integral format.
 Two-electron integral symmetry is turned on.
 Leave Link  301 at Thu Dec 16 11:32:21 2021, MaxMem=   536870912 cpu:               0.1 elap:               0.1
 (Enter /opt/gaussian/g16/sse4/g16/l302.exe)
 NPDir=0 NMtPBC=     1 NCelOv=     1 NCel=       1 NClECP=     1 NCelD=      1
         NCelK=      1 NCelE2=     1 NClLst=     1 CellRange=     0.0.
 One-electron integrals computed using PRISM.
 One-electron integral symmetry used in STVInt
 NBasis=    34 RedAO= T EigKep=  2.34D-02  NBF=    34
 NBsUse=    34 1.00D-06 EigRej= -1.00D+00 NBFU=    34
 Leave Link  302 at Thu Dec 16 11:32:21 2021, MaxMem=   536870912 cpu:               0.5 elap:               0.1
 (Enter /opt/gaussian/g16/sse4/g16/l303.exe)
 DipDrv:  MaxL=1.
 Leave Link  303 at Thu Dec 16 11:32:21 2021, MaxMem=   536870912 cpu:               0.1 elap:               0.0
 (Enter /opt/gaussian/g16/sse4/g16/l401.exe)
 Initial guess from the checkpoint file:  "HF_Methane_gaus.chk"
 B after Tr=     0.000000   -0.000000    0.000000
         Rot=    1.000000   -0.000000    0.000000   -0.000000 Ang=   0.00 deg.
 Guess basis will be translated and rotated to current coordinates.
 JPrj=2 DoOrth=T DoCkMO=T.
 Leave Link  401 at Thu Dec 16 11:32:22 2021, MaxMem=   536870912 cpu:               0.3 elap:               0.2
 (Enter /opt/gaussian/g16/sse4/g16/l502.exe)
 Keep R1 ints in memory in canonical form, NReq=1015658.
 FoFCou: FMM=F IPFlag=           0 FMFlag=           0 FMFlg1=           0
         NFxFlg=           0 DoJE=F BraDBF=F KetDBF=F FulRan=T
         wScrn=  0.000000 ICntrl=       600 IOpCl=  0 I1Cent=           0 NGrid=           0
         NMat0=    1 NMatS0=    595 NMatT0=    0 NMatD0=    1 NMtDS0=    0 NMtDT0=    0
 Symmetry not used in FoFCou.
 Two-electron integral symmetry not used.
 Closed shell SCF:
 Using DIIS extrapolation, IDIIS=  1040.
 NGot=   536870912 LenX=   536690353 LenY=   536688687
 Requested convergence on RMS density matrix=1.00D-08 within 128 cycles.
 Requested convergence on MAX density matrix=1.00D-06.
 Requested convergence on             energy=1.00D-06.
 No special actions if energy rises.

 Cycle   1  Pass 1  IDiag  1:
 E= -40.1987119219785    
 DIIS: error= 2.09D-09 at cycle   1 NSaved=   1.
 NSaved= 1 IEnMin= 1 EnMin= -40.1987119219785     IErMin= 1 ErrMin= 2.09D-09
 ErrMax= 2.09D-09  0.00D+00 EMaxC= 1.00D-01 BMatC= 7.20D-17 BMatP= 7.20D-17
 IDIUse=1 WtCom= 1.00D+00 WtEn= 0.00D+00
 Coeff-Com:  0.100D+01
 Coeff:      0.100D+01
 Gap=     0.735 Goal=   None    Shift=    0.000
 RMSDP=3.89D-10 MaxDP=3.75D-09              OVMax= 5.07D-09

 SCF Done:  E(RHF) =  -40.1987119220     A.U. after    1 cycles
            NFock=  1  Conv=0.39D-09     -V/T= 2.0025
 KE= 4.009972841198D+01 PE=-1.197811829938D+02 EE= 2.605526547604D+01
 Leave Link  502 at Thu Dec 16 11:32:22 2021, MaxMem=   536870912 cpu:               0.6 elap:               0.2
 (Enter /opt/gaussian/g16/sse4/g16/l801.exe)
 Range of M.O.s used for correlation:     1    34
 NBasis=    34 NAE=     5 NBE=     5 NFC=     0 NFV=     0
 NROrb=     34 NOA=     5 NOB=     5 NVA=    29 NVB=    29
 Leave Link  801 at Thu Dec 16 11:32:22 2021, MaxMem=   536870912 cpu:               0.1 elap:               0.1
 (Enter /opt/gaussian/g16/sse4/g16/l1002.exe)
 Minotr:  Closed shell wavefunction.
          Direct CPHF calculation.
          Differentiating once with respect to electric field.
                with respect to dipole field.
          Electric field/nuclear overlap derivatives assumed to be zero.
          Requested convergence is 1.0D-08 RMS, and 1.0D-07 maximum.
          Secondary convergence is 1.0D-12 RMS, and 1.0D-12 maximum.
          NewPWx=F KeepS1=T KeepF1=T KeepIn=T MapXYZ=F SortEE=F KeepMc=T.
 Keep R1 ints in memory in canonical form, NReq=1016173.
 FoFCou: FMM=F IPFlag=           0 FMFlag=           0 FMFlg1=           0
         NFxFlg=           0 DoJE=F BraDBF=F KetDBF=F FulRan=T
         wScrn=  0.000000 ICntrl=       600 IOpCl=  0 I1Cent=           0 NGrid=           0
         NMat0=    1 NMatS0=    595 NMatT0=    0 NMatD0=    1 NMtDS0=    0 NMtDT0=    0
 Symmetry not used in FoFCou.
 Two-electron integral symmetry not used.
          MDV=     536870912 using IRadAn=       1.
          Solving linear equations simultaneously, MaxMat=       0.
          There are     3 degrees of freedom in the 1st order CPHF.  IDoFFX=0 NUNeed=     3.
      3 vectors produced by pass  0 Test12= 4.83D-15 3.33D-08 XBig12= 2.75D+00 8.08D-01.
 AX will form     3 AO Fock derivatives at one time.
      3 vectors produced by pass  1 Test12= 4.83D-15 3.33D-08 XBig12= 9.69D-02 1.47D-01.
      3 vectors produced by pass  2 Test12= 4.83D-15 3.33D-08 XBig12= 7.05D-04 1.02D-02.
      3 vectors produced by pass  3 Test12= 4.83D-15 3.33D-08 XBig12= 4.81D-06 7.49D-04.
      3 vectors produced by pass  4 Test12= 4.83D-15 3.33D-08 XBig12= 4.26D-08 1.12D-04.
      3 vectors produced by pass  5 Test12= 4.83D-15 3.33D-08 XBig12= 3.34D-10 6.05D-06.
      3 vectors produced by pass  6 Test12= 4.83D-15 3.33D-08 XBig12= 1.14D-12 3.52D-07.
      3 vectors produced by pass  7 Test12= 4.83D-15 3.33D-08 XBig12= 7.61D-15 3.63D-08.
 InvSVY:  IOpt=1 It=  1 EMax= 2.22D-16
 Solved reduced A of dimension    24 with     3 vectors.
 End of Minotr F.D. properties file   721 does not exist.
 End of Minotr F.D. properties file   722 does not exist.
 End of Minotr F.D. properties file   788 does not exist.
 Leave Link 1002 at Thu Dec 16 11:32:23 2021, MaxMem=   536870912 cpu:               0.4 elap:               0.1
 (Enter /opt/gaussian/g16/sse4/g16/l1101.exe)
 Using compressed storage, NAtomX=     5.
 Will process      6 centers per pass.
 Leave Link 1101 at Thu Dec 16 11:32:23 2021, MaxMem=   536870912 cpu:               0.6 elap:               0.1
 (Enter /opt/gaussian/g16/sse4/g16/l1102.exe)
 Symmetrizing basis deriv contribution to polar:
 IMax=3 JMax=2 DiffMx= 0.00D+00
 Leave Link 1102 at Thu Dec 16 11:32:23 2021, MaxMem=   536870912 cpu:               0.1 elap:               0.0
 (Enter /opt/gaussian/g16/sse4/g16/l1110.exe)
 Forming Gx(P) for the SCF density, NAtomX=     5.
 Integral derivatives from FoFJK, PRISM(SPDF).
 Do as many integral derivatives as possible in FoFJK.
 G2DrvN: MDV=     536870416.
 G2DrvN: will do     6 centers at a time, making    1 passes.
 PxScal for G2LodP:  IOpCl= 0 ISclPx=1 IMOff=     1 NMtTot=     4 NTT=     595 ScalPx= 1.36D+00
 Calling FoFCou, ICntrl=  3107 FMM=F I1Cent=   0 AccDes= 0.00D+00.
 FoFJK:  IHMeth= 1 ICntrl=    3107 DoSepK=F KAlg= 0 I1Cent=           0 FoldK=F
 IRaf=         0 NMat=       1 IRICut=       1 DoRegI=T DoRafI=F ISym2E= 0 IDoP0=0 IntGTp=1.
 FoFCou: FMM=F IPFlag=           0 FMFlag=      100000 FMFlg1=           0
         NFxFlg=           0 DoJE=F BraDBF=F KetDBF=F FulRan=T
         wScrn=  0.000000 ICntrl=      3107 IOpCl=  0 I1Cent=           0 NGrid=           0
         NMat0=    1 NMatS0=      1 NMatT0=    0 NMatD0=    4 NMtDS0=    3 NMtDT0=    0
 Symmetry not used in FoFCou.
 End of G2Drv F.D. properties file   721 does not exist.
 End of G2Drv F.D. properties file   722 does not exist.
 End of G2Drv F.D. properties file   788 does not exist.
 Leave Link 1110 at Thu Dec 16 11:32:23 2021, MaxMem=   536870912 cpu:               0.8 elap:               0.2
 (Enter /opt/gaussian/g16/sse4/g16/l1002.exe)
 Minotr:  Closed shell wavefunction.
          IDoAtm=11111
          Direct CPHF calculation.
          Differentiating once with respect to electric field.
                with respect to dipole field.
          Differentiating once with respect to nuclear coordinates.
          Requested convergence is 1.0D-08 RMS, and 1.0D-07 maximum.
          Secondary convergence is 1.0D-12 RMS, and 1.0D-12 maximum.
          NewPWx=T KeepS1=F KeepF1=F KeepIn=T MapXYZ=F SortEE=F KeepMc=T.
 Keep R1 ints in memory in canonical form, NReq=1016288.
 FoFCou: FMM=F IPFlag=           0 FMFlag=           0 FMFlg1=           0
         NFxFlg=           0 DoJE=F BraDBF=F KetDBF=F FulRan=T
         wScrn=  0.000000 ICntrl=       600 IOpCl=  0 I1Cent=           0 NGrid=           0
         NMat0=    1 NMatS0=    595 NMatT0=    0 NMatD0=    1 NMtDS0=    0 NMtDT0=    0
 Symmetry not used in FoFCou.
 Two-electron integral symmetry not used.
          MDV=     536870912 using IRadAn=       1.
          Solving linear equations simultaneously, MaxMat=       0.
          There are    18 degrees of freedom in the 1st order CPHF.  IDoFFX=5 NUNeed=    18.
 Will reuse    3 saved solutions.
     12 vectors produced by pass  0 Test12= 8.06D-16 5.56D-09 XBig12= 2.85D-02 8.51D-02.
 AX will form    12 AO Fock derivatives at one time.
     12 vectors produced by pass  1 Test12= 8.06D-16 5.56D-09 XBig12= 6.95D-04 1.08D-02.
     12 vectors produced by pass  2 Test12= 8.06D-16 5.56D-09 XBig12= 1.11D-05 1.37D-03.
     12 vectors produced by pass  3 Test12= 8.06D-16 5.56D-09 XBig12= 5.83D-08 8.19D-05.
     12 vectors produced by pass  4 Test12= 8.06D-16 5.56D-09 XBig12= 1.36D-10 4.10D-06.
     11 vectors produced by pass  5 Test12= 8.06D-16 5.56D-09 XBig12= 2.84D-13 1.96D-07.
      4 vectors produced by pass  6 Test12= 8.06D-16 5.56D-09 XBig12= 4.89D-16 1.36D-08.
 InvSVY:  IOpt=1 It=  1 EMax= 9.99D-16
 Solved reduced A of dimension    75 with    12 vectors.
 FullF1:  Do perturbations      1 to       3.
 Isotropic polarizability for W=    0.000000       13.00 Bohr**3.
 FullF1:  Do perturbations      1 to       6.
 End of Minotr F.D. properties file   721 does not exist.
 End of Minotr F.D. properties file   722 does not exist.
 End of Minotr F.D. properties file   788 does not exist.
 Leave Link 1002 at Thu Dec 16 11:32:24 2021, MaxMem=   536870912 cpu:               0.5 elap:               0.1
 (Enter /opt/gaussian/g16/sse4/g16/l601.exe)
 Copying SCF densities to generalized density rwf, IOpCl= 0 IROHF=0.

 **********************************************************************

            Population analysis using the SCF density.

 **********************************************************************

 Orbital symmetries:
       Occupied  (A) (A) (A) (A) (A)
       Virtual   (A) (A) (A) (A) (A) (A) (A) (A) (A) (A) (A) (A)
                 (A) (A) (A) (A) (A) (A) (A) (A) (A) (A) (A) (A)
                 (A) (A) (A) (A) (A)
 The electronic state is 1-A.
 Alpha  occ. eigenvalues --  -11.21651  -0.94174  -0.54240  -0.54240  -0.54240
 Alpha virt. eigenvalues --    0.19294   0.27392   0.27392   0.27392   0.58950
 Alpha virt. eigenvalues --    0.58950   0.58950   0.88883   0.88883   0.88883
 Alpha virt. eigenvalues --    0.93289   1.13144   1.13144   1.25632   1.68535
 Alpha virt. eigenvalues --    1.68535   1.68535   1.89288   1.89288   1.89288
 Alpha virt. eigenvalues --    2.21057   2.21057   2.21058   2.54229   2.54229
 Alpha virt. eigenvalues --    2.74688   2.79284   2.79284   2.79284
          Condensed to atoms (all electrons):
               1          2          3          4          5
     1  C    4.482601   0.415180   0.415180   0.415180   0.415180
     2  H    0.415180   0.615714  -0.022241  -0.022241  -0.022241
     3  H    0.415180  -0.022241   0.615714  -0.022241  -0.022241
     4  H    0.415180  -0.022241  -0.022241   0.615714  -0.022241
     5  H    0.415180  -0.022241  -0.022241  -0.022241   0.615714
 Mulliken charges:
               1
     1  C   -0.143320
     2  H    0.035830
     3  H    0.035830
     4  H    0.035830
     5  H    0.035830
 Sum of Mulliken charges =   0.00000
 Mulliken charges with hydrogens summed into heavy atoms:
               1
     1  C    0.000000
 APT charges:
               1
     1  C    0.060405
     2  H   -0.015101
     3  H   -0.015101
     4  H   -0.015101
     5  H   -0.015101
 Sum of APT charges =   0.00000
 APT charges with hydrogens summed into heavy atoms:
               1
     1  C    0.000000
 Electronic spatial extent (au):  <R**2>=             35.6347
 Charge=              0.0000 electrons
 Dipole moment (field-independent basis, Debye):
    X=             -0.0000    Y=             -0.0000    Z=              0.0000  Tot=              0.0000
 Quadrupole moment (field-independent basis, Debye-Ang):
   XX=             -8.3587   YY=             -8.3587   ZZ=             -8.3587
   XY=             -0.0000   XZ=              0.0000   YZ=              0.0000
 Traceless Quadrupole moment (field-independent basis, Debye-Ang):
   XX=              0.0000   YY=             -0.0000   ZZ=             -0.0000
   XY=             -0.0000   XZ=              0.0000   YZ=              0.0000
 Octapole moment (field-independent basis, Debye-Ang**2):
  XXX=              0.5367  YYY=             -0.4127  ZZZ=              0.5308  XYY=             -0.1622
  XXY=              0.3868  XXZ=             -0.0861  XZZ=             -0.3745  YZZ=              0.0260
  YYZ=             -0.4446  XYZ=              0.1313
 Hexadecapole moment (field-independent basis, Debye-Ang**3):
 XXXX=            -15.3244 YYYY=            -15.4190 ZZZZ=            -15.3663 XXXY=              0.2491
 XXXZ=              0.0686 YYYX=             -0.1010 YYYZ=              0.2811 ZZZX=             -0.3042
 ZZZY=             -0.0875 XXYY=             -5.2743 XXZZ=             -5.3270 YYZZ=             -5.2324
 XXYZ=             -0.1935 YYXZ=              0.2356 ZZXY=             -0.1481
 N-N= 1.342747718380D+01 E-N=-1.197811830000D+02  KE= 4.009972841198D+01
  Exact polarizability:  13.004  -0.000  13.004  -0.000  -0.000  13.004
 Approx polarizability:  10.552  -0.000  10.552  -0.000   0.000  10.552
 No NMR shielding tensors so no spin-rotation constants.
 Leave Link  601 at Thu Dec 16 11:32:24 2021, MaxMem=   536870912 cpu:               0.5 elap:               0.1
 (Enter /opt/gaussian/g16/sse4/g16/l701.exe)
 ... and contract with generalized density number  0.
 Compute integral second derivatives.
 Leave Link  701 at Thu Dec 16 11:32:25 2021, MaxMem=   536870912 cpu:               0.5 elap:               0.1
 (Enter /opt/gaussian/g16/sse4/g16/l702.exe)
 L702 exits ... SP integral derivatives will be done elsewhere.
 Leave Link  702 at Thu Dec 16 11:32:25 2021, MaxMem=   536870912 cpu:               0.1 elap:               0.0
 (Enter /opt/gaussian/g16/sse4/g16/l703.exe)
 Integral derivatives from FoFJK, PRISM(SPDF).
 Compute integral second derivatives, UseDBF=F ICtDFT=           0.
 Calling FoFJK, ICntrl=    100127 FMM=F ISym2X=0 I1Cent= 0 IOpClX= 0 NMat=1 NMatS=1 NMatT=0.
 FoFJK:  IHMeth= 1 ICntrl=  100127 DoSepK=F KAlg= 0 I1Cent=           0 FoldK=F
 IRaf=         0 NMat=       1 IRICut=       1 DoRegI=T DoRafI=F ISym2E= 0 IDoP0=0 IntGTp=1.
 FoFCou: FMM=F IPFlag=           0 FMFlag=      100000 FMFlg1=         800
         NFxFlg=           0 DoJE=F BraDBF=F KetDBF=F FulRan=T
         wScrn=  0.000000 ICntrl=    100127 IOpCl=  0 I1Cent=           0 NGrid=           0
         NMat0=    1 NMatS0=      1 NMatT0=    0 NMatD0=    1 NMtDS0=    0 NMtDT0=    0
 Symmetry not used in FoFCou.
 Leave Link  703 at Thu Dec 16 11:32:25 2021, MaxMem=   536870912 cpu:               1.3 elap:               0.3
 (Enter /opt/gaussian/g16/sse4/g16/l716.exe)
 Dipole        =-3.46571568D-07-2.13960711D-07 1.18979963D-07
 Polarizability= 1.30042459D+01-5.96178028D-07 1.30042332D+01
                -5.67302426D-07-3.04145708D-07 1.30042320D+01
 HyperPolar    = 2.78830597D+01 2.00920019D+01-8.42857334D+00
                -2.14412470D+01-4.47400263D+00 6.81845712D+00
                -2.30984416D+01-1.94545338D+01 1.34922835D+00
                 2.75724716D+01
 Full mass-weighted force constant matrix:
 Low frequencies ---  -36.2732  -36.2411  -36.2346   -0.0011   -0.0006    0.0007
 Low frequencies --- 1432.9799 1432.9802 1432.9805
 Diagonal vibrational polarizability:
        0.2154865       0.2154880       0.2154887
 Diagonal vibrational hyperpolarizability:
       -3.3596802       2.5834886      -3.3222583
 Harmonic frequencies (cm**-1), IR intensities (KM/Mole), Raman scattering
 activities (A**4/AMU), depolarization ratios for plane and unpolarized
 incident light, reduced masses (AMU), force constants (mDyne/A),
 and normal coordinates:
                      1                      2                      3
                      A                      A                      A
 Frequencies --   1432.9799              1432.9802              1432.9805
 Red. masses --      1.1781                 1.1781                 1.1781
 Frc consts  --      1.4253                 1.4253                 1.4253
 IR Inten    --      9.9095                 9.9095                 9.9094
 Raman Activ --      0.8505                 0.8505                 0.8505
 Depolar (P) --      0.7500                 0.7500                 0.7500
 Depolar (U) --      0.8571                 0.8571                 0.8571
  Atom  AN      X      Y      Z        X      Y      Z        X      Y      Z
     1   6     0.01   0.02  -0.12     0.01  -0.12  -0.02    -0.12  -0.01  -0.01
     2   1    -0.27   0.17   0.38     0.17   0.33   0.31     0.39   0.30  -0.16
     3   1     0.18  -0.09  -0.04    -0.03   0.59  -0.02     0.54   0.06   0.21
     4   1     0.05  -0.07   0.59    -0.19   0.55   0.09    -0.05  -0.14   0.07
     5   1    -0.05  -0.24   0.53    -0.11  -0.02  -0.17     0.59  -0.06  -0.01
                      4                      5                      6
                      A                      A                      A
 Frequencies --   1647.7765              1647.7767              3166.0483
 Red. masses --      1.0078                 1.0078                 1.0078
[...]
      5  0.000000D+00 -0.529984D-01  0.000000D+00  0.000000D+00  0.504005D-01
      6  0.000000D+00  0.000000D+00 -0.529985D-01  0.000000D+00  0.000000D+00
      7 -0.859051D-01 -0.629051D-01  0.686004D-01 -0.896958D-02 -0.236964D-01
      8 -0.629051D-01 -0.173249D+00  0.131138D+00  0.654311D-03  0.674157D-03
      9  0.686004D-01  0.131138D+00 -0.196009D+00 -0.713533D-03 -0.220979D-02
     10 -0.859066D-01 -0.279577D-01 -0.887790D-01 -0.896970D-02 -0.105315D-01
     11 -0.279577D-01 -0.767505D-01 -0.754239D-01  0.290804D-03 -0.951987D-03
     12 -0.887790D-01 -0.754239D-01 -0.292506D+00  0.923530D-03  0.127108D-02
     13 -0.859062D-01  0.908636D-01  0.201777D-01 -0.896973D-02  0.342278D-01
     14  0.908636D-01 -0.303887D+00 -0.557138D-01 -0.945186D-03  0.287577D-02
     15  0.201777D-01 -0.557138D-01 -0.653705D-01 -0.209854D-03  0.938746D-03
                6             7             8             9            10 
      6  0.504005D-01
      7  0.258419D-01  0.865857D-01
      8 -0.220982D-02  0.691723D-01  0.182631D+00
      9  0.105767D-02 -0.754350D-01 -0.144203D+00  0.207659D+00
     10 -0.334425D-01  0.414451D-02  0.533395D-02  0.118386D-01  0.865872D-01
     11  0.127096D-02  0.984353D-02  0.820023D-02  0.211986D-01  0.307431D-01
     12  0.268405D-02 -0.846846D-02 -0.821963D-02 -0.195824D-01  0.976240D-01
     13  0.760080D-02  0.414450D-02 -0.122555D-01 -0.429046D-02  0.414460D-02
     14  0.938894D-03  0.758571D-02 -0.182569D-01 -0.592368D-02  0.241212D-02
     15 -0.114374D-02 -0.105388D-01  0.234946D-01  0.687470D-02  0.127589D-01
               11            12            13            14            15 
     11  0.765189D-01
     12  0.829384D-01  0.313770D+00
     13 -0.129197D-01 -0.130005D-02  0.865869D-01
     14 -0.701667D-02 -0.565895D-03 -0.999162D-01  0.326285D+00
     15 -0.299840D-01 -0.436562D-02 -0.221880D-01  0.612645D-01  0.640052D-01
 FormGI is forming the generalized inverse of G from B-inverse, IUseBI=4.
 Force constants in internal coordinates: 
                1             2             3             4             5 
      1  0.376075D+00
      2  0.207710D-02  0.376075D+00
      3  0.207705D-02  0.207707D-02  0.376075D+00
      4  0.207708D-02  0.207709D-02  0.207707D-02  0.376076D+00
      5  0.199505D-02  0.199504D-02 -0.125270D-02 -0.273737D-02  0.218252D-01
      6  0.312667D-02 -0.806888D-03  0.347970D-02 -0.579951D-02 -0.957970D-02
      7  0.611019D-02 -0.490388D-02 -0.542836D-02  0.422205D-02 -0.144250D-01
      8 -0.806894D-03  0.312667D-02  0.347971D-02 -0.579951D-02 -0.957969D-02
      9 -0.490388D-02  0.611019D-02 -0.542836D-02  0.422207D-02 -0.144250D-01
     10 -0.552113D-02 -0.552113D-02  0.514999D-02  0.589228D-02  0.261841D-01
     11  0.386400D-02  0.386400D-02  0.272752D-02 -0.104555D-01  0.149976D-01
     12 -0.318213D-02 -0.318213D-02  0.818256D-02 -0.181835D-02 -0.906345D-02
     13  0.419010D-02 -0.737224D-02  0.409128D-02 -0.909175D-03 -0.453171D-02
     14  0.737223D-02 -0.419011D-02 -0.409129D-02  0.909175D-03  0.453174D-02
                6             7             8             9            10 
      6  0.412537D-01
      7 -0.250092D-01  0.805901D-01
      8 -0.210337D-02  0.270777D-01  0.412537D-01
      9  0.270777D-01 -0.388991D-01 -0.250092D-01  0.805901D-01
     10 -0.316392D-01 -0.293345D-01 -0.316391D-01 -0.293344D-01  0.957630D-01
     11  0.122420D-01 -0.164002D-01  0.122420D-01 -0.164003D-01 -0.668109D-02
     12  0.104660D-01 -0.786341D-02  0.104660D-01 -0.786343D-02  0.385829D-02
     13  0.158354D-01  0.757775D-03 -0.536939D-02 -0.862121D-02  0.192915D-02
     14  0.536939D-02  0.862118D-02 -0.158354D-01 -0.757782D-03 -0.192914D-02
               11            12            13            14 
     11  0.333616D-01
     12  0.171776D-02  0.207310D-01
     13  0.858885D-03  0.103655D-01  0.210397D-01
     14 -0.858879D-03 -0.103655D-01  0.106742D-01  0.210397D-01
 Leave Link  716 at Thu Dec 16 11:32:25 2021, MaxMem=   536870912 cpu:               0.1 elap:               0.0
 (Enter /opt/gaussian/g16/sse4/g16/l103.exe)

 GradGradGradGradGradGradGradGradGradGradGradGradGradGradGradGradGradGrad
 Berny optimization.
 Red2BG is reusing G-inverse.
 Internal  Forces:  Max     0.000103453 RMS     0.000055212
 Search for a local minimum.
 Step number   1 out of a maximum of    2
 All quantities printed in internal units (Hartrees-Bohrs-Radians)
 Second derivative matrix not updated -- analytic derivatives used.
 The second derivative matrix:
                          R1        R2        R3        R4        A1
           R1           0.37608
           R2           0.00208   0.37608
           R3           0.00208   0.00208   0.37607
           R4           0.00208   0.00208   0.00208   0.37608
           A1           0.00200   0.00200  -0.00125  -0.00274   0.02183
           A2           0.00313  -0.00081   0.00348  -0.00580  -0.00958
           A3           0.00611  -0.00490  -0.00543   0.00422  -0.01442
           A4          -0.00081   0.00313   0.00348  -0.00580  -0.00958
           A5          -0.00490   0.00611  -0.00543   0.00422  -0.01442
           A6          -0.00552  -0.00552   0.00515   0.00589   0.02618
           D1           0.00386   0.00386   0.00273  -0.01046   0.01500
           D2          -0.00318  -0.00318   0.00818  -0.00182  -0.00906
           D3           0.00419  -0.00737   0.00409  -0.00091  -0.00453
           D4           0.00737  -0.00419  -0.00409   0.00091   0.00453
                          A2        A3        A4        A5        A6
           A2           0.04125
           A3          -0.02501   0.08059
           A4          -0.00210   0.02708   0.04125
           A5           0.02708  -0.03890  -0.02501   0.08059
           A6          -0.03164  -0.02933  -0.03164  -0.02933   0.09576
           D1           0.01224  -0.01640   0.01224  -0.01640  -0.00668
           D2           0.01047  -0.00786   0.01047  -0.00786   0.00386
           D3           0.01584   0.00076  -0.00537  -0.00862   0.00193
           D4           0.00537   0.00862  -0.01584  -0.00076  -0.00193
                          D1        D2        D3        D4
           D1           0.03336
           D2           0.00172   0.02073
           D3           0.00086   0.01037   0.02104
           D4          -0.00086  -0.01037   0.01067   0.02104
 ITU=  0
     Eigenvalues ---    0.04254   0.04797   0.07302   0.14524   0.14568
     Eigenvalues ---    0.37490   0.37491   0.37518   0.38231
 Angle between quadratic step and forces=   0.35 degrees.
 Linear search not attempted -- first point.
 Iteration  1 RMS(Cart)=  0.00014442 RMS(Int)=  0.00000000
 Iteration  2 RMS(Cart)=  0.00000000 RMS(Int)=  0.00000000
 ITry= 1 IFail=0 DXMaxC= 2.70D-04 DCOld= 1.00D+10 DXMaxT= 3.00D-01 DXLimC= 3.00D+00 Rises=F
 Variable       Old X    -DE/DX   Delta X   Delta X   Delta X     New X
                                 (Linear)    (Quad)   (Total)
    R1        2.06102   0.00010   0.00000   0.00027   0.00027   2.06129
    R2        2.06102   0.00010   0.00000   0.00027   0.00027   2.06129
    R3        2.06102   0.00010   0.00000   0.00027   0.00027   2.06129
    R4        2.06101   0.00010   0.00000   0.00027   0.00027   2.06129
    A1        1.91063   0.00000   0.00000   0.00000   0.00000   1.91063
    A2        1.91063  -0.00000   0.00000  -0.00000  -0.00000   1.91063
    A3        1.91063   0.00000   0.00000   0.00000   0.00000   1.91063
    A4        1.91063  -0.00000   0.00000  -0.00000  -0.00000   1.91063
    A5        1.91063   0.00000   0.00000   0.00000   0.00000   1.91063
    A6        1.91063   0.00000   0.00000  -0.00000  -0.00000   1.91063
    D1        2.09439  -0.00000   0.00000   0.00000   0.00000   2.09440
    D2       -2.09439  -0.00000   0.00000  -0.00000  -0.00000  -2.09440
    D3        2.09440  -0.00000   0.00000  -0.00000  -0.00000   2.09440
    D4       -2.09440   0.00000   0.00000   0.00000   0.00000  -2.09440
         Item               Value     Threshold  Converged?
 Maximum Force            0.000103     0.000450     YES
 RMS     Force            0.000055     0.000300     YES
 Maximum Displacement     0.000270     0.001800     YES
 RMS     Displacement     0.000144     0.001200     YES
 Predicted change in Energy=-5.581542D-08
 Optimization completed.
    -- Stationary point found.
                           ----------------------------
                           !   Optimized Parameters   !
                           ! (Angstroms and Degrees)  !
 --------------------------                            --------------------------
 ! Name  Definition              Value          Derivative Info.                !
 --------------------------------------------------------------------------------
 ! R1    R(1,2)                  1.0906         -DE/DX =    0.0001              !
 ! R2    R(1,3)                  1.0906         -DE/DX =    0.0001              !
 ! R3    R(1,4)                  1.0906         -DE/DX =    0.0001              !
 ! R4    R(1,5)                  1.0906         -DE/DX =    0.0001              !
 ! A1    A(2,1,3)              109.4711         -DE/DX =    0.0                 !
 ! A2    A(2,1,4)              109.4713         -DE/DX =    0.0                 !
 ! A3    A(2,1,5)              109.4712         -DE/DX =    0.0                 !
 ! A4    A(3,1,4)              109.4713         -DE/DX =    0.0                 !
 ! A5    A(3,1,5)              109.4712         -DE/DX =    0.0                 !
 ! A6    A(4,1,5)              109.4712         -DE/DX =    0.0                 !
 ! D1    D(2,1,4,3)            120.0            -DE/DX =    0.0                 !
 ! D2    D(2,1,5,3)           -119.9999         -DE/DX =    0.0                 !
 ! D3    D(2,1,5,4)            120.0001         -DE/DX =    0.0                 !
 ! D4    D(3,1,5,4)           -120.0            -DE/DX =    0.0                 !
 --------------------------------------------------------------------------------
 GradGradGradGradGradGradGradGradGradGradGradGradGradGradGradGradGradGrad

 Leave Link  103 at Thu Dec 16 11:32:25 2021, MaxMem=   536870912 cpu:               0.0 elap:               0.0
 (Enter /opt/gaussian/g16/sse4/g16/l9999.exe)

 ----------------------------------------------------------------------

 Electric dipole moment (input orientation):
 (Debye = 10**-18 statcoulomb cm , SI units = C m)
                  (au)            (Debye)         (10**-30 SI)
   Tot        0.000000D+00      0.000000D+00      0.000000D+00
   x          0.000000D+00      0.000000D+00      0.000000D+00
   y          0.000000D+00      0.000000D+00      0.000000D+00
   z          0.000000D+00      0.000000D+00      0.000000D+00

 Dipole polarizability, Alpha (input orientation).
 (esu units = cm**3 , SI units = C**2 m**2 J**-1)
 Alpha(0;0):
               (au)            (10**-24 esu)      (10**-40 SI)
   iso        0.130042D+02      0.192703D+01      0.214411D+01
   aniso      0.134020D-04      0.198597D-05      0.220969D-05
   xx         0.130042D+02      0.192703D+01      0.214411D+01
   yx         0.000000D+00      0.000000D+00      0.000000D+00
   yy         0.130042D+02      0.192703D+01      0.214411D+01
   zx         0.000000D+00      0.000000D+00      0.000000D+00
   zy         0.000000D+00      0.000000D+00      0.000000D+00
   zz         0.130042D+02      0.192703D+01      0.214411D+01

 First dipole hyperpolarizability, Beta (input orientation).
 ||, _|_  parallel and perpendicular components, (z) with respect to z axis,
 vector components x,y,z.  Values do not include the 1/n! factor of 1/2.
 (esu units = statvolt**-1 cm**4 , SI units = C**3 m**3 J**-2)
 Beta(0;0,0):
               (au)            (10**-30 esu)      (10**-50 SI)
   || (z)     0.343044D-04      0.296363D-06      0.109992D-06
   _|_(z)     0.114348D-04      0.987876D-07      0.366641D-07
   x          0.000000D+00      0.000000D+00      0.000000D+00
   y          0.000000D+00      0.000000D+00      0.000000D+00
   z          0.171522D-03      0.148181D-05      0.549961D-06
   ||         0.343715D-04      0.296943D-06      0.110208D-06
   xxx        0.380121D+02      0.328395D+00      0.121880D+00
   xxy        0.168947D-03      0.145957D-05      0.541706D-06
   yxy       -0.190060D+02     -0.164197D+00     -0.609401D-01
   yyy        0.213068D+02      0.184074D+00      0.683173D-01
   xxz       -0.246990D-03     -0.213380D-05     -0.791941D-06
   yxz       -0.121527D-03     -0.104990D-05     -0.389658D-06
   yyz        0.163852D+02      0.141556D+00      0.525370D-01
   zxz       -0.190061D+02     -0.164198D+00     -0.609403D-01
   zyz       -0.213070D+02     -0.184076D+00     -0.683179D-01
   zzz       -0.163849D+02     -0.141553D+00     -0.525360D-01

 ----------------------------------------------------------------------

 Dipole orientation:
     6          1.92455675          0.15852288          0.08984787
     1          3.98555049          0.15962376          0.08049993
     1          1.24336286         -1.45074712          1.18255456
     1          1.22883938          0.01898296         -1.84516940
     1          1.24047439          1.90623104          0.94151070

 Electric dipole moment (dipole orientation):
 (Debye = 10**-18 statcoulomb cm , SI units = C m)
                  (au)            (Debye)         (10**-30 SI)
   Tot        0.000000D+00      0.000000D+00      0.000000D+00
   x          0.000000D+00      0.000000D+00      0.000000D+00
   y          0.000000D+00      0.000000D+00      0.000000D+00
   z          0.000000D+00      0.000000D+00      0.000000D+00

 Dipole polarizability, Alpha (dipole orientation).
 (esu units = cm**3 , SI units = C**2 m**2 J**-1)
 Alpha(0;0):
               (au)            (10**-24 esu)      (10**-40 SI)
   iso        0.130042D+02      0.192703D+01      0.214411D+01
   aniso      0.134020D-04      0.198597D-05      0.220969D-05
   xx         0.130042D+02      0.192703D+01      0.214411D+01
   yx         0.000000D+00      0.000000D+00      0.000000D+00
   yy         0.130042D+02      0.192703D+01      0.214411D+01
   zx         0.000000D+00      0.000000D+00      0.000000D+00
   zy         0.000000D+00      0.000000D+00      0.000000D+00
   zz         0.130042D+02      0.192703D+01      0.214411D+01

 First dipole hyperpolarizability, Beta (dipole orientation).
 ||, _|_  parallel and perpendicular components, (z) with respect to z axis,
 vector components x,y,z.  Values do not include the 1/n! factor of 1/2.
 (esu units = statvolt**-1 cm**4 , SI units = C**3 m**3 J**-2)
 Beta(0;0,0):
               (au)            (10**-30 esu)      (10**-50 SI)
   || (z)     0.329330D-04      0.284515D-06      0.105595D-06
   _|_(z)     0.109777D-04      0.948384D-07      0.351983D-07
   x          0.000000D+00      0.000000D+00      0.000000D+00
   y         -0.488431D-04     -0.421966D-06     -0.156609D-06
   z          0.164665D-03      0.142258D-05      0.527975D-06
   ||         0.343715D-04      0.296943D-06      0.110208D-06
   xxx        0.380097D+02      0.328374D+00      0.121873D+00
   xxy        0.403835D-01      0.348882D-03      0.129484D-03
   yxy       -0.188897D+02     -0.163193D+00     -0.605673D-01
   yyy        0.570535D+01      0.492898D-01      0.182934D-01
   xxz       -0.345373D+00     -0.298375D-02     -0.110739D-02
   yxz       -0.402880D-01     -0.348057D-03     -0.129178D-03
   yyz        0.263454D+02      0.227604D+00      0.844730D-01
   zxz       -0.191200D+02     -0.165182D+00     -0.613055D-01
   zyz       -0.574575D+01     -0.496388D-01     -0.184229D-01
   zzz       -0.260000D+02     -0.224620D+00     -0.833654D-01

 ----------------------------------------------------------------------
 1\1\GINC-NODE681\Freq\RHF\CC-pVDZ\C1H4\THEOB\16-Dec-2021\0\\#P Geom=Al
 lCheck Guess=TCheck SCRF=Check GenChk RHF/CC-pVDZ Freq\\Methane.xyz\\0
 ,1\C,1.0182499902,0.0931499879,0.0314715339\H,2.1088922802,0.093152327
 8,0.0314689144\H,0.6547072619,-0.6018045416,0.7893470328\H,0.654699224
 2,-0.2157115793,-0.9493121149\H,0.6547012435,1.0969638051,0.2543846338
 \\Version=ES64L-G16RevA.03\State=1-A\HF=-40.1987119\RMSD=3.891e-10\RMS
 F=5.334e-05\ZeroPoint=0.0469791\Thermal=0.0498364\Dipole=0.,0.,0.00000
 04\DipoleDeriv=0.0604051,0.,0.0000002,0.,0.0604048,0.0000001,0.0000002
 ,0.0000001,0.0604054,-0.1643679,-0.0000005,0.0000008,-0.0000005,0.0595
 322,-0.0000001,0.0000004,-0.0000001,0.0595319,0.0346548,-0.0475557,0.0
 518612,-0.0475558,-0.0313761,0.0991388,0.0518613,0.099139,-0.0485829,0
 .0346539,-0.0211357,-0.0671162,-0.0211357,0.0415759,-0.0570198,-0.0671
 16,-0.0570198,-0.1215332,0.0346541,0.0686919,0.015254,0.0686919,-0.130
 1368,-0.042119,0.0152541,-0.0421192,0.0501788\Polar=13.0042372,-0.0000
 002,13.0042322,0.0000061,0.0000008,13.0042416\PolarDeriv=-7.0241802,-0
 .0000307,3.5120854,0.0000381,0.0000213,3.5120941,-0.000032,3.5120851,-
 3.937244,0.0000224,-3.0278044,3.937276,0.0000462,0.0000224,-3.0277988,
 3.5120939,3.9372756,3.0277251,9.8726671,0.0000174,0.2046993,-0.0000196
 ,-0.0000007,0.204701,0.000014,1.7397124,0.4802867,-0.0000026,0.3693342
 ,-0.4802789,-0.0000148,-0.0000026,0.3693373,1.7397113,-0.4802754,-0.36
 93447,-0.9494683,-1.6680034,-1.1870922,1.819022,0.5972238,-1.2907501,-
 0.6898958,-1.6987576,-3.7330768,0.5972234,3.0176157,-2.1287346,0.75235
 67,0.597225,1.9509519,-1.8024145,-3.1068411,4.4415899,-0.9495157,-0.74
 13206,-0.747628,-2.3540661,-0.3435062,-1.7302444,-0.3066177,-1.2593029
 ,-1.0189114,-0.3435061,-1.8722245,-1.5862736,-0.9736769,-0.343506,-0.4
 918335,-2.2419181,-2.0209763,-7.7808603,-0.949503,2.4093373,-1.7820645
 ,0.5350256,-0.2537381,-0.6958006,0.9965315,-2.2937371,8.2089456,-0.253
 7371,1.513079,0.2580111,0.2212888,-0.2537388,1.1993431,-1.2074727,1.67
 08171,0.68089\HyperPolar=38.0120801,0.0001689,-19.0060127,21.3068056,-
 0.000247,-0.0001215,16.3852398,-19.0060657,-21.3069777,-16.3849356\Qua
 drupole=0.,-0.0000013,0.0000013,-0.0000003,0.0000021,0.0000008\PG=C01 
 [X(C1H4)]\NImag=0\\0.60688413,-0.00000023,0.60688435,0.00000013,0.0000
 0003,0.60688401,-0.34916620,-0.00000063,0.00000076,0.37607521,-0.00000
 064,-0.05299842,-0.00000004,0.00000070,0.05040049,0.00000073,-0.000000
 04,-0.05299847,-0.00000091,0.,0.05040050,-0.08590512,-0.06290506,0.068
 60042,-0.00896958,-0.02369643,0.02584186,0.08658569,-0.06290506,-0.173
 24876,0.13113773,0.00065431,0.00067416,-0.00220982,0.06917225,0.182631
 29,0.06860043,0.13113776,-0.19600933,-0.00071353,-0.00220979,0.0010576
 7,-0.07543504,-0.14420289,0.20765939,-0.08590658,-0.02795766,-0.088779
 00,-0.00896970,-0.01053146,-0.03344249,0.00414451,0.00533395,0.0118386
 1,0.08658716,-0.02795766,-0.07675050,-0.07542393,0.00029080,-0.0009519
 9,0.00127096,0.00984353,0.00820023,0.02119860,0.03074306,0.07651892,-0
 .08877899,-0.07542394,-0.29250567,0.00092353,0.00127108,0.00268405,-0.
 00846846,-0.00821963,-0.01958242,0.09762398,0.08293838,0.31376965,-0.0
 8590622,0.09086359,0.02017769,-0.00896973,0.03422784,0.00760080,0.0041
 4450,-0.01225545,-0.00429046,0.00414460,-0.01291973,-0.00130005,0.0865
 8685,0.09086359,-0.30388668,-0.05571379,-0.00094519,0.00287577,0.00093
 889,0.00758571,-0.01825693,-0.00592368,0.00241212,-0.00701667,-0.00056
 590,-0.09991624,0.32628451,0.02017770,-0.05571382,-0.06537054,-0.00020
 985,0.00093875,-0.00114374,-0.01053877,0.02349461,0.00687470,0.0127589
 1,-0.02998401,-0.00436562,-0.02218798,0.06126447,0.06400520\\-0.000000
 01,0.00000012,-0.00000003,-0.00010328,-0.00000001,0.00000017,0.0000345
 4,0.00006593,-0.00007176,0.00003428,0.00002921,0.00009269,0.00003448,-
 0.00009523,-0.00002107\\\@


 ... IT CAN BE VERY DIFFICULT, IN THESE COMPLEX TIMES,
 TO UNDERSTAND JUST HOW SCIENTISTS DO WHAT THEY DO.

                     DON MOSER IN THE FEBRUARY 1979 SMITHSONIAN
 Job cpu time:       0 days  0 hours  0 minutes  7.9 seconds.
 Elapsed time:       0 days  0 hours  0 minutes  2.4 seconds.
 File lengths (MBytes):  RWF=      6 Int=      0 D2E=      0 Chk=      2 Scr=      1
 Normal termination of Gaussian 16 at Thu Dec 16 11:32:26 2021.
