 Entering Gaussian System, Link 0=/opt/gaussian/g16/sse4/g16/g16
 Initial command:
 /opt/gaussian/g16/sse4/g16/l1.exe "/scratch/1549350/Gau-13045.inp" -scrdir="/scratch/1549350/"
 Entering Link 1 = /opt/gaussian/g16/sse4/g16/l1.exe PID=     13050.
  
 Copyright (c) 1988,1990,1992,1993,1995,1998,2003,2009,2016,
            Gaussian, Inc.  All Rights Reserved.
  
 This is part of the Gaussian(R) 16 program.  It is based on
 the Gaussian(R) 09 system (copyright 2009, Gaussian, Inc.),
 the Gaussian(R) 03 system (copyright 2003, Gaussian, Inc.),
 the Gaussian(R) 98 system (copyright 1998, Gaussian, Inc.),
 the Gaussian(R) 94 system (copyright 1995, Gaussian, Inc.),
 the Gaussian 92(TM) system (copyright 1992, Gaussian, Inc.),
 the Gaussian 90(TM) system (copyright 1990, Gaussian, Inc.),
 the Gaussian 88(TM) system (copyright 1988, Gaussian, Inc.),
 the Gaussian 86(TM) system (copyright 1986, Carnegie Mellon
 University), and the Gaussian 82(TM) system (copyright 1983,
 Carnegie Mellon University). Gaussian is a federally registered
 trademark of Gaussian, Inc.
  
 This software contains proprietary and confidential information,
 including trade secrets, belonging to Gaussian, Inc.
  
 This software is provided under written license and may be
 used, copied, transmitted, or stored only in accord with that
 written license.
  
 The following legend is applicable only to US Government
 contracts under FAR:
  
                    RESTRICTED RIGHTS LEGEND
  
 Use, reproduction and disclosure by the US Government is
 subject to restrictions as set forth in subparagraphs (a)
 and (c) of the Commercial Computer Software - Restricted
 Rights clause in FAR 52.227-19.
  
 Gaussian, Inc.
 340 Quinnipiac St., Bldg. 40, Wallingford CT 06492
  
  
 ---------------------------------------------------------------
 Warning -- This program may not be used in any manner that
 competes with the business of Gaussian, Inc. or will provide
 assistance to any competitor of Gaussian, Inc.  The licensee
 of this program is prohibited from giving any competitor of
 Gaussian, Inc. access to this program.  By using this program,
 the user acknowledges that Gaussian, Inc. is engaged in the
 business of creating and licensing software in the field of
 computational chemistry and represents and warrants to the
 licensee that it is not a competitor of Gaussian, Inc. and that
 it will not use this program in any manner prohibited above.
 ---------------------------------------------------------------
  

 Cite this work as:
 Gaussian 16, Revision A.03,
 M. J. Frisch, G. W. Trucks, H. B. Schlegel, G. E. Scuseria, 
 M. A. Robb, J. R. Cheeseman, G. Scalmani, V. Barone, 
 G. A. Petersson, H. Nakatsuji, X. Li, M. Caricato, A. V. Marenich, 
 J. Bloino, B. G. Janesko, R. Gomperts, B. Mennucci, H. P. Hratchian, 
 J. V. Ortiz, A. F. Izmaylov, J. L. Sonnenberg, D. Williams-Young, 
 F. Ding, F. Lipparini, F. Egidi, J. Goings, B. Peng, A. Petrone, 
 T. Henderson, D. Ranasinghe, V. G. Zakrzewski, J. Gao, N. Rega, 
 G. Zheng, W. Liang, M. Hada, M. Ehara, K. Toyota, R. Fukuda, 
 J. Hasegawa, M. Ishida, T. Nakajima, Y. Honda, O. Kitao, H. Nakai, 
 T. Vreven, K. Throssell, J. A. Montgomery, Jr., J. E. Peralta, 
 F. Ogliaro, M. J. Bearpark, J. J. Heyd, E. N. Brothers, K. N. Kudin, 
 V. N. Staroverov, T. A. Keith, R. Kobayashi, J. Normand, 
 K. Raghavachari, A. P. Rendell, J. C. Burant, S. S. Iyengar, 
 J. Tomasi, M. Cossi, J. M. Millam, M. Klene, C. Adamo, R. Cammi, 
 J. W. Ochterski, R. L. Martin, K. Morokuma, O. Farkas, 
 J. B. Foresman, and D. J. Fox, Gaussian, Inc., Wallingford CT, 2016.
 
 ******************************************
 Gaussian 16:  ES64L-G16RevA.03 25-Dec-2016
                16-Dec-2021 
 ******************************************
 %chk=HF_Water_gaus.chk
 %nprocshared=4
 Will use up to    4 processors via shared memory.
 %mem=4GB
 ----------------------------------------------
 #p opt freq hf/cc-pvdz geom=connectivity polar
 ----------------------------------------------
 1/18=20,19=15,38=1,57=2/1,3;
 2/9=110,12=2,17=6,18=5,40=1/2;
 3/5=16,11=9,25=1,30=1,71=1/1,2,3;
 4//1;
 5/5=2,38=5,98=1/2;
 6/7=2,8=2,9=2,10=2,28=1/1;
 7//1,2,3,16;
 1/18=20,19=15/3(2);
 2/9=110/2;
 99//99;
 2/9=110/2;
 3/5=16,11=9,25=1,30=1,71=1/1,2,3;
 4/5=5,16=3,69=1/1;
 5/5=2,38=5,98=1/2;
 7//1,2,3,16;
 1/18=20,19=15/3(-5);
 2/9=110/2;
 6/7=2,8=2,9=2,10=2,19=2,28=1/1;
 99/9=1/99;
 Leave Link    1 at Thu Dec 16 11:32:07 2021, MaxMem=   536870912 cpu:               0.1 elap:               0.0
 (Enter /opt/gaussian/g16/sse4/g16/l101.exe)
 ---------
 Water.xyz
 ---------
 Symbolic Z-matrix:
 Charge =  0 Multiplicity = 1
 O                     0.90644  -0.06978   0.02183 
 H                     1.87433  -0.04844  -0.01941 
 H                     0.62759   0.35671  -0.80237 
 
 ITRead=  0  0  0
 MicOpt= -1 -1 -1
 NAtoms=      3 NQM=        3 NQMF=       0 NMMI=      0 NMMIF=      0
                NMic=       0 NMicF=      0.
                    Isotopes and Nuclear Properties:
 (Nuclear quadrupole moments (NQMom) in fm**2, nuclear magnetic moments (NMagM)
  in nuclear magnetons)

  Atom         1           2           3
 IAtWgt=          16           1           1
 AtmWgt=  15.9949146   1.0078250   1.0078250
 NucSpn=           0           1           1
 AtZEff=  -0.0000000  -0.0000000  -0.0000000
 NQMom=    0.0000000   0.0000000   0.0000000
 NMagM=    0.0000000   2.7928460   2.7928460
 AtZNuc=   8.0000000   1.0000000   1.0000000
 Leave Link  101 at Thu Dec 16 11:32:08 2021, MaxMem=   536870912 cpu:               0.8 elap:               0.2
 (Enter /opt/gaussian/g16/sse4/g16/l103.exe)

 GradGradGradGradGradGradGradGradGradGradGradGradGradGradGradGradGradGrad
 Berny optimization.
 Initialization pass.
                           ----------------------------
                           !    Initial Parameters    !
                           ! (Angstroms and Degrees)  !
 --------------------------                            --------------------------
 ! Name  Definition              Value          Derivative Info.                !
 --------------------------------------------------------------------------------
 ! R1    R(1,2)                  0.969          estimate D2E/DX2                !
 ! R2    R(1,3)                  0.969          estimate D2E/DX2                !
 ! A1    A(2,1,3)              103.978          estimate D2E/DX2                !
 --------------------------------------------------------------------------------
 Trust Radius=3.00D-01 FncErr=1.00D-07 GrdErr=1.00D-07 EigMax=2.50D+02 EigMin=1.00D-04
 Number of steps in this run=     20 maximum allowed number of steps=    100.
 GradGradGradGradGradGradGradGradGradGradGradGradGradGradGradGradGradGrad

 Leave Link  103 at Thu Dec 16 11:32:08 2021, MaxMem=   536870912 cpu:               0.0 elap:               0.0
 (Enter /opt/gaussian/g16/sse4/g16/l202.exe)
                          Input orientation:                          
 ---------------------------------------------------------------------
 Center     Atomic      Atomic             Coordinates (Angstroms)
 Number     Number       Type             X           Y           Z
 ---------------------------------------------------------------------
      1          8           0        0.906440   -0.069780    0.021830
      2          1           0        1.874330   -0.048440   -0.019410
      3          1           0        0.627590    0.356710   -0.802370
 ---------------------------------------------------------------------
                    Distance matrix (angstroms):
                    1          2          3
     1  O    0.000000
     2  H    0.969003   0.000000
     3  H    0.968998   1.526936   0.000000
 Stoichiometry    H2O
 Framework group  CS[SG(H2O)]
 Deg. of freedom     3
 Full point group                 CS      NOp   2
 Largest Abelian subgroup         CS      NOp   2
 Largest concise Abelian subgroup C1      NOp   1
                         Standard orientation:                         
 ---------------------------------------------------------------------
 Center     Atomic      Atomic             Coordinates (Angstroms)
 Number     Number       Type             X           Y           Z
 ---------------------------------------------------------------------
      1          8           0        0.000000    0.119345   -0.000000
      2          1           0        0.763468   -0.477383    0.000000
      3          1           0       -0.763468   -0.477374    0.000000
 ---------------------------------------------------------------------
 Rotational constants (GHZ):         792.8693766         430.1504584         278.8614837
 Leave Link  202 at Thu Dec 16 11:32:08 2021, MaxMem=   536870912 cpu:               0.0 elap:               0.0
 (Enter /opt/gaussian/g16/sse4/g16/l301.exe)
 Standard basis: CC-pVDZ (5D, 7F)
 Ernie: Thresh=  0.10000D-02 Tol=  0.10000D-05 Strict=F.
 Ernie:  2 primitive shells out of 32 were deleted.
 There are    19 symmetry adapted cartesian basis functions of A'  symmetry.
 There are     6 symmetry adapted cartesian basis functions of A"  symmetry.
 There are    18 symmetry adapted basis functions of A'  symmetry.
 There are     6 symmetry adapted basis functions of A"  symmetry.
    24 basis functions,    47 primitive gaussians,    25 cartesian basis functions
     5 alpha electrons        5 beta electrons
       nuclear repulsion energy         9.0842613495 Hartrees.
 IExCor=    0 DFT=F Ex=HF Corr=None ExCW=0 ScaHFX=  1.000000
 ScaDFX=  1.000000  1.000000  1.000000  1.000000 ScalE2=  1.000000  1.000000
 IRadAn=      5 IRanWt=     -1 IRanGd=            0 ICorTp=0 IEmpDi=  4
 NAtoms=    3 NActive=    3 NUniq=    3 SFac= 1.00D+00 NAtFMM=   60 NAOKFM=F Big=F
 Integral buffers will be    131072 words long.
 Raffenetti 1 integral format.
 Two-electron integral symmetry is turned on.
 Leave Link  301 at Thu Dec 16 11:32:09 2021, MaxMem=   536870912 cpu:               0.1 elap:               0.0
 (Enter /opt/gaussian/g16/sse4/g16/l302.exe)
 NPDir=0 NMtPBC=     1 NCelOv=     1 NCel=       1 NClECP=     1 NCelD=      1
         NCelK=      1 NCelE2=     1 NClLst=     1 CellRange=     0.0.
 One-electron integrals computed using PRISM.
 One-electron integral symmetry used in STVInt
 NBasis=    24 RedAO= T EigKep=  3.53D-02  NBF=    18     6
 NBsUse=    24 1.00D-06 EigRej= -1.00D+00 NBFU=    18     6
 Leave Link  302 at Thu Dec 16 11:32:09 2021, MaxMem=   536870912 cpu:               0.4 elap:               0.1
 (Enter /opt/gaussian/g16/sse4/g16/l303.exe)
 DipDrv:  MaxL=1.
 Leave Link  303 at Thu Dec 16 11:32:09 2021, MaxMem=   536870912 cpu:               0.1 elap:               0.0
 (Enter /opt/gaussian/g16/sse4/g16/l401.exe)
 ExpMin= 1.22D-01 ExpMax= 1.17D+04 ExpMxC= 4.01D+02 IAcc=3 IRadAn=         5 AccDes= 0.00D+00
 Harris functional with IExCor=  205 and IRadAn=       5 diagonalized for initial guess.
 HarFok:  IExCor=  205 AccDes= 0.00D+00 IRadAn=         5 IDoV= 1 UseB2=F ITyADJ=14
 ICtDFT=  3500011 ScaDFX=  1.000000  1.000000  1.000000  1.000000
 FoFCou: FMM=F IPFlag=           0 FMFlag=      100000 FMFlg1=           0
         NFxFlg=           0 DoJE=T BraDBF=F KetDBF=T FulRan=T
         wScrn=  0.000000 ICntrl=       500 IOpCl=  0 I1Cent=   200000004 NGrid=           0
         NMat0=    1 NMatS0=      1 NMatT0=    0 NMatD0=    1 NMtDS0=    0 NMtDT0=    0
 Petite list used in FoFCou.
 Harris En= -76.1134539356713    
 JPrj=0 DoOrth=F DoCkMO=F.
 Initial guess orbital symmetries:
       Occupied  (A') (A') (A') (A') (A")
       Virtual   (A') (A') (A') (A') (A") (A') (A') (A') (A") (A")
                 (A') (A') (A') (A') (A") (A") (A') (A') (A')
 The electronic state of the initial guess is 1-A'.
 Leave Link  401 at Thu Dec 16 11:32:10 2021, MaxMem=   536870912 cpu:               0.7 elap:               0.2
 (Enter /opt/gaussian/g16/sse4/g16/l502.exe)
 Keep R1 ints in memory in symmetry-blocked form, NReq=878187.
 FoFCou: FMM=F IPFlag=           0 FMFlag=           0 FMFlg1=           0
         NFxFlg=           0 DoJE=F BraDBF=F KetDBF=F FulRan=T
         wScrn=  0.000000 ICntrl=       600 IOpCl=  0 I1Cent=           0 NGrid=           0
         NMat0=    1 NMatS0=    300 NMatT0=    0 NMatD0=    1 NMtDS0=    0 NMtDT0=    0
 Petite list used in FoFCou.
 Closed shell SCF:
 Using DIIS extrapolation, IDIIS=  1040.
 NGot=   536870912 LenX=   536843682 LenY=   536842616
 Requested convergence on RMS density matrix=1.00D-08 within 128 cycles.
 Requested convergence on MAX density matrix=1.00D-06.
 Requested convergence on             energy=1.00D-06.
 No special actions if energy rises.

 Cycle   1  Pass 1  IDiag  1:
 E= -75.9428653246234    
 DIIS: error= 5.85D-02 at cycle   1 NSaved=   1.
 NSaved= 1 IEnMin= 1 EnMin= -75.9428653246234     IErMin= 1 ErrMin= 5.85D-02
 ErrMax= 5.85D-02  0.00D+00 EMaxC= 1.00D-01 BMatC= 1.23D-01 BMatP= 1.23D-01
 IDIUse=3 WtCom= 4.15D-01 WtEn= 5.85D-01
 Coeff-Com:  0.100D+01
 Coeff-En:   0.100D+01
 Coeff:      0.100D+01
 Gap=     0.555 Goal=   None    Shift=    0.000
 GapD=    0.555 DampG=2.000 DampE=0.500 DampFc=1.0000 IDamp=-1.
 RMSDP=1.17D-02 MaxDP=1.17D-01              OVMax= 1.28D-01

 Cycle   2  Pass 1  IDiag  1:
 E= -75.9990629278350     Delta-E=       -0.056197603212 Rises=F Damp=F
 DIIS: error= 3.84D-02 at cycle   2 NSaved=   2.
 NSaved= 2 IEnMin= 2 EnMin= -75.9990629278350     IErMin= 2 ErrMin= 3.84D-02
 ErrMax= 3.84D-02  0.00D+00 EMaxC= 1.00D-01 BMatC= 3.98D-02 BMatP= 1.23D-01
 IDIUse=3 WtCom= 6.16D-01 WtEn= 3.84D-01
 Coeff-Com:  0.351D+00 0.649D+00
 Coeff-En:   0.100D+00 0.900D+00
 Coeff:      0.255D+00 0.745D+00
 Gap=     0.692 Goal=   None    Shift=    0.000
 RMSDP=5.28D-03 MaxDP=5.48D-02 DE=-5.62D-02 OVMax= 4.73D-02

 Cycle   3  Pass 1  IDiag  1:
 E= -76.0249900030857     Delta-E=       -0.025927075251 Rises=F Damp=F
 DIIS: error= 6.28D-03 at cycle   3 NSaved=   3.
 NSaved= 3 IEnMin= 3 EnMin= -76.0249900030857     IErMin= 3 ErrMin= 6.28D-03
 ErrMax= 6.28D-03  0.00D+00 EMaxC= 1.00D-01 BMatC= 1.29D-03 BMatP= 3.98D-02
 IDIUse=3 WtCom= 9.37D-01 WtEn= 6.28D-02
 Coeff-Com: -0.343D-01 0.109D+00 0.926D+00
 Coeff-En:   0.000D+00 0.000D+00 0.100D+01
 Coeff:     -0.321D-01 0.102D+00 0.930D+00
 Gap=     0.673 Goal=   None    Shift=    0.000
 RMSDP=8.69D-04 MaxDP=9.05D-03 DE=-2.59D-02 OVMax= 1.04D-02

 Cycle   4  Pass 1  IDiag  1:
 E= -76.0259729093495     Delta-E=       -0.000982906264 Rises=F Damp=F
 DIIS: error= 8.31D-04 at cycle   4 NSaved=   4.
 NSaved= 4 IEnMin= 4 EnMin= -76.0259729093495     IErMin= 4 ErrMin= 8.31D-04
 ErrMax= 8.31D-04  0.00D+00 EMaxC= 1.00D-01 BMatC= 1.02D-05 BMatP= 1.29D-03
 IDIUse=3 WtCom= 9.92D-01 WtEn= 8.31D-03
 Coeff-Com:  0.740D-02-0.534D-01-0.294D+00 0.134D+01
 Coeff-En:   0.000D+00 0.000D+00 0.000D+00 0.100D+01
 Coeff:      0.733D-02-0.529D-01-0.291D+00 0.134D+01
 Gap=     0.676 Goal=   None    Shift=    0.000
 RMSDP=1.52D-04 MaxDP=1.59D-03 DE=-9.83D-04 OVMax= 1.80D-03

 Cycle   5  Pass 1  IDiag  1:
 E= -76.0259879078711     Delta-E=       -0.000014998522 Rises=F Damp=F
 DIIS: error= 1.22D-04 at cycle   5 NSaved=   5.
 NSaved= 5 IEnMin= 5 EnMin= -76.0259879078711     IErMin= 5 ErrMin= 1.22D-04
 ErrMax= 1.22D-04  0.00D+00 EMaxC= 1.00D-01 BMatC= 1.84D-07 BMatP= 1.02D-05
 IDIUse=3 WtCom= 9.99D-01 WtEn= 1.22D-03
 Coeff-Com:  0.339D-04 0.338D-02 0.136D-01-0.194D+00 0.118D+01
 Coeff-En:   0.000D+00 0.000D+00 0.000D+00 0.000D+00 0.100D+01
 Coeff:      0.339D-04 0.338D-02 0.136D-01-0.194D+00 0.118D+01
 Gap=     0.676 Goal=   None    Shift=    0.000
 RMSDP=3.18D-05 MaxDP=2.86D-04 DE=-1.50D-05 OVMax= 4.08D-04

 Cycle   6  Pass 1  IDiag  1:
 E= -76.0259883495555     Delta-E=       -0.000000441684 Rises=F Damp=F
 DIIS: error= 2.24D-05 at cycle   6 NSaved=   6.
 NSaved= 6 IEnMin= 6 EnMin= -76.0259883495555     IErMin= 6 ErrMin= 2.24D-05
 ErrMax= 2.24D-05  0.00D+00 EMaxC= 1.00D-01 BMatC= 7.58D-09 BMatP= 1.84D-07
 IDIUse=1 WtCom= 1.00D+00 WtEn= 0.00D+00
 Coeff-Com: -0.289D-03 0.151D-02 0.952D-02-0.232D-01-0.225D+00 0.124D+01
 Coeff:     -0.289D-03 0.151D-02 0.952D-02-0.232D-01-0.225D+00 0.124D+01
 Gap=     0.676 Goal=   None    Shift=    0.000
 RMSDP=7.85D-06 MaxDP=6.22D-05 DE=-4.42D-07 OVMax= 1.04D-04

 Cycle   7  Pass 1  IDiag  1:
 E= -76.0259883697348     Delta-E=       -0.000000020179 Rises=F Damp=F
 DIIS: error= 3.27D-06 at cycle   7 NSaved=   7.
 NSaved= 7 IEnMin= 7 EnMin= -76.0259883697348     IErMin= 7 ErrMin= 3.27D-06
 ErrMax= 3.27D-06  0.00D+00 EMaxC= 1.00D-01 BMatC= 3.21D-10 BMatP= 7.58D-09
 IDIUse=1 WtCom= 1.00D+00 WtEn= 0.00D+00
 Coeff-Com:  0.120D-03-0.770D-03-0.462D-02 0.172D-01 0.627D-01-0.532D+00
 Coeff-Com:  0.146D+01
 Coeff:      0.120D-03-0.770D-03-0.462D-02 0.172D-01 0.627D-01-0.532D+00
 Coeff:      0.146D+01
 Gap=     0.676 Goal=   None    Shift=    0.000
 RMSDP=1.29D-06 MaxDP=1.48D-05 DE=-2.02D-08 OVMax= 1.87D-05

 Cycle   8  Pass 1  IDiag  1:
 E= -76.0259883705700     Delta-E=       -0.000000000835 Rises=F Damp=F
 DIIS: error= 7.16D-07 at cycle   8 NSaved=   8.
 NSaved= 8 IEnMin= 8 EnMin= -76.0259883705700     IErMin= 8 ErrMin= 7.16D-07
 ErrMax= 7.16D-07  0.00D+00 EMaxC= 1.00D-01 BMatC= 8.09D-12 BMatP= 3.21D-10
 IDIUse=1 WtCom= 1.00D+00 WtEn= 0.00D+00
 Coeff-Com: -0.275D-04 0.194D-03 0.115D-02-0.513D-02-0.833D-02 0.115D+00
 Coeff-Com: -0.445D+00 0.134D+01
 Coeff:     -0.275D-04 0.194D-03 0.115D-02-0.513D-02-0.833D-02 0.115D+00
 Coeff:     -0.445D+00 0.134D+01
 Gap=     0.676 Goal=   None    Shift=    0.000
 RMSDP=2.15D-07 MaxDP=1.63D-06 DE=-8.35D-10 OVMax= 2.96D-06

 Cycle   9  Pass 1  IDiag  1:
 E= -76.0259883705910     Delta-E=       -0.000000000021 Rises=F Damp=F
 DIIS: error= 7.75D-08 at cycle   9 NSaved=   9.
 NSaved= 9 IEnMin= 9 EnMin= -76.0259883705910     IErMin= 9 ErrMin= 7.75D-08
 ErrMax= 7.75D-08  0.00D+00 EMaxC= 1.00D-01 BMatC= 1.17D-13 BMatP= 8.09D-12
 IDIUse=1 WtCom= 1.00D+00 WtEn= 0.00D+00
 Coeff-Com:  0.402D-05-0.308D-04-0.183D-03 0.916D-03 0.675D-03-0.177D-01
 Coeff-Com:  0.831D-01-0.358D+00 0.129D+01
 Coeff:      0.402D-05-0.308D-04-0.183D-03 0.916D-03 0.675D-03-0.177D-01
 Coeff:      0.831D-01-0.358D+00 0.129D+01
 Gap=     0.676 Goal=   None    Shift=    0.000
 RMSDP=3.26D-08 MaxDP=2.72D-07 DE=-2.10D-11 OVMax= 4.16D-07

 Cycle  10  Pass 1  IDiag  1:
 E= -76.0259883705913     Delta-E=       -0.000000000000 Rises=F Damp=F
 DIIS: error= 1.02D-08 at cycle  10 NSaved=  10.
 NSaved=10 IEnMin=10 EnMin= -76.0259883705913     IErMin=10 ErrMin= 1.02D-08
 ErrMax= 1.02D-08  0.00D+00 EMaxC= 1.00D-01 BMatC= 2.29D-15 BMatP= 1.17D-13
 IDIUse=1 WtCom= 1.00D+00 WtEn= 0.00D+00
 Coeff-Com: -0.356D-06 0.313D-05 0.191D-04-0.116D-03 0.438D-04 0.176D-02
 Coeff-Com: -0.105D-01 0.524D-01-0.253D+00 0.121D+01
 Coeff:     -0.356D-06 0.313D-05 0.191D-04-0.116D-03 0.438D-04 0.176D-02
 Coeff:     -0.105D-01 0.524D-01-0.253D+00 0.121D+01
 Gap=     0.676 Goal=   None    Shift=    0.000
 RMSDP=3.64D-09 MaxDP=2.27D-08 DE=-2.98D-13 OVMax= 4.30D-08

 SCF Done:  E(RHF) =  -76.0259883706     A.U. after   10 cycles
            NFock= 10  Conv=0.36D-08     -V/T= 2.0011
 KE= 7.594507703678D+01 PE=-1.988974209206D+02 EE= 3.784209416374D+01
 Leave Link  502 at Thu Dec 16 11:32:10 2021, MaxMem=   536870912 cpu:               0.7 elap:               0.2
 (Enter /opt/gaussian/g16/sse4/g16/l601.exe)
 Copying SCF densities to generalized density rwf, IOpCl= 0 IROHF=0.

 **********************************************************************

            Population analysis using the SCF density.

 **********************************************************************

 Orbital symmetries:
       Occupied  (A') (A') (A') (A') (A")
       Virtual   (A') (A') (A') (A') (A') (A") (A') (A') (A") (A")
                 (A') (A') (A') (A') (A") (A") (A') (A') (A')
 The electronic state is 1-A'.
 Alpha  occ. eigenvalues --  -20.55279  -1.33122  -0.69205  -0.56549  -0.49252
 Alpha virt. eigenvalues --    0.18347   0.25455   0.77919   0.84577   1.16471
 Alpha virt. eigenvalues --    1.20003   1.25462   1.44163   1.47499   1.66961
 Alpha virt. eigenvalues --    1.86871   1.92515   2.42395   2.46216   3.27806
 Alpha virt. eigenvalues --    3.32541   3.49720   3.84927   4.13712
          Condensed to atoms (all electrons):
               1          2          3
     1  O    7.595734   0.361281   0.361283
     2  H    0.361281   0.512891  -0.033322
     3  H    0.361283  -0.033322   0.512892
 Mulliken charges:
               1
     1  O   -0.318298
     2  H    0.159150
     3  H    0.159148
 Sum of Mulliken charges =  -0.00000
 Mulliken charges with hydrogens summed into heavy atoms:
               1
     1  O   -0.000000
 Electronic spatial extent (au):  <R**2>=             18.8780
 Charge=             -0.0000 electrons
 Dipole moment (field-independent basis, Debye):
    X=             -0.0000    Y=             -2.0756    Z=              0.0000  Tot=              2.0756
 Quadrupole moment (field-independent basis, Debye-Ang):
   XX=             -4.1204   YY=             -5.8756   ZZ=             -7.0596
   XY=             -0.0000   XZ=              0.0000   YZ=              0.0000
 Traceless Quadrupole moment (field-independent basis, Debye-Ang):
   XX=              1.5648   YY=             -0.1904   ZZ=             -1.3744
   XY=             -0.0000   XZ=              0.0000   YZ=              0.0000
 Octapole moment (field-independent basis, Debye-Ang**2):
  XXX=             -0.0000  YYY=             -1.2048  ZZZ=              0.0000  XYY=              0.0000
  XXY=             -1.3272  XXZ=              0.0000  XZZ=             -0.0000  YZZ=             -0.2929
  YYZ=              0.0000  XYZ=             -0.0000
 Hexadecapole moment (field-independent basis, Debye-Ang**3):
 XXXX=             -5.6061 YYYY=             -5.9100 ZZZZ=             -4.8821 XXXY=              0.0000
 XXXZ=             -0.0000 YYYX=              0.0000 YYYZ=              0.0000 ZZZX=             -0.0000
 ZZZY=              0.0000 XXYY=             -1.5282 XXZZ=             -2.0535 YYZZ=             -1.8602
 XXYZ=              0.0000 YYXZ=             -0.0000 ZZXY=              0.0000
 N-N= 9.084261349486D+00 E-N=-1.988974210644D+02  KE= 7.594507703678D+01
 Symmetry A'   KE= 7.138483815041D+01
 Symmetry A"   KE= 4.560238886365D+00
 No NMR shielding tensors so no spin-rotation constants.
 Leave Link  601 at Thu Dec 16 11:32:10 2021, MaxMem=   536870912 cpu:               0.4 elap:               0.1
 (Enter /opt/gaussian/g16/sse4/g16/l701.exe)
 ... and contract with generalized density number  0.
 Compute integral first derivatives.
 Leave Link  701 at Thu Dec 16 11:32:10 2021, MaxMem=   536870912 cpu:               0.6 elap:               0.1
 (Enter /opt/gaussian/g16/sse4/g16/l702.exe)
 L702 exits ... SP integral derivatives will be done elsewhere.
 Leave Link  702 at Thu Dec 16 11:32:11 2021, MaxMem=   536870912 cpu:               0.1 elap:               0.0
 (Enter /opt/gaussian/g16/sse4/g16/l703.exe)
 Integral derivatives from FoFJK, PRISM(SPDF).
 Compute integral first derivatives, UseDBF=F ICtDFT=           0.
 Calling FoFJK, ICntrl=      2127 FMM=F ISym2X=1 I1Cent= 0 IOpClX= 0 NMat=1 NMatS=1 NMatT=0.
 FoFJK:  IHMeth= 1 ICntrl=    2127 DoSepK=F KAlg= 0 I1Cent=           0 FoldK=F
 IRaf=         0 NMat=       1 IRICut=       1 DoRegI=T DoRafI=F ISym2E= 1 IDoP0=0 IntGTp=1.
 FoFCou: FMM=F IPFlag=           0 FMFlag=      100000 FMFlg1=         800
         NFxFlg=           0 DoJE=F BraDBF=F KetDBF=F FulRan=T
         wScrn=  0.000000 ICntrl=      2127 IOpCl=  0 I1Cent=           0 NGrid=           0
         NMat0=    1 NMatS0=      1 NMatT0=    0 NMatD0=    1 NMtDS0=    0 NMtDT0=    0
 Petite list used in FoFCou.
 Leave Link  703 at Thu Dec 16 11:32:12 2021, MaxMem=   536870912 cpu:               0.7 elap:               0.2
 (Enter /opt/gaussian/g16/sse4/g16/l716.exe)
 Dipole        =-1.43120441D-06-8.16614961D-01 1.23332115D-16
 ***** Axes restored to original set *****
 -------------------------------------------------------------------
 Center     Atomic                   Forces (Hartrees/Bohr)
 Number     Number              X              Y              Z
 -------------------------------------------------------------------
      1        8           0.016982608    0.011034196   -0.021323795
      2        1          -0.024234123   -0.000402124    0.000777112
      3        1           0.007251514   -0.010632073    0.020546682
 -------------------------------------------------------------------
 Cartesian Forces:  Max     0.024234123 RMS     0.015058097
 Leave Link  716 at Thu Dec 16 11:32:12 2021, MaxMem=   536870912 cpu:               0.1 elap:               0.0
 (Enter /opt/gaussian/g16/sse4/g16/l103.exe)

 GradGradGradGradGradGradGradGradGradGradGradGradGradGradGradGradGradGrad
 Berny optimization.
 FormGI is forming the generalized inverse of G from B-inverse, IUseBI=4.
 Internal  Forces:  Max     0.024248212 RMS     0.019798666
 Search for a local minimum.
 Step number   1 out of a maximum of   20
 All quantities printed in internal units (Hartrees-Bohrs-Radians)
 RMS Force = .19799D-01 SwitMx=.10000D-02 MixMth= 1
 Mixed Optimization -- RFO/linear search
 Second derivative matrix not updated -- first step.
 The second derivative matrix:
                          R1        R2        A1
           R1           0.53581
           R2           0.00000   0.53582
           A1           0.00000   0.00000   0.16000
 ITU=  0
     Eigenvalues ---    0.16000   0.53581   0.53582
 RFO step:  Lambda=-2.18697880D-03 EMin= 1.60000000D-01
 Linear search not attempted -- first point.
 Iteration  1 RMS(Cart)=  0.03275337 RMS(Int)=  0.00004729
 Iteration  2 RMS(Cart)=  0.00004470 RMS(Int)=  0.00000000
 Iteration  3 RMS(Cart)=  0.00000000 RMS(Int)=  0.00000000
 ITry= 1 IFail=0 DXMaxC= 3.54D-02 DCOld= 1.00D+10 DXMaxT= 3.00D-01 DXLimC= 3.00D+00 Rises=F
 ClnCor:  largest displacement from symmetrization is 4.82D-16 for atom     2.
 Variable       Old X    -DE/DX   Delta X   Delta X   Delta X     New X
                                 (Linear)    (Quad)   (Total)
    R1        1.83115  -0.02425   0.00000  -0.04507  -0.04507   1.78608
    R2        1.83114  -0.02424   0.00000  -0.04506  -0.04506   1.78608
    A1        1.81476  -0.00053   0.00000  -0.00324  -0.00324   1.81151
         Item               Value     Threshold  Converged?
 Maximum Force            0.024248     0.000450     NO 
 RMS     Force            0.019799     0.000300     NO 
 Maximum Displacement     0.035354     0.001800     NO 
 RMS     Displacement     0.032731     0.001200     NO 
 Predicted change in Energy=-1.097942D-03
 Lowest energy point so far.  Saving SCF results.
 GradGradGradGradGradGradGradGradGradGradGradGradGradGradGradGradGradGrad

 Leave Link  103 at Thu Dec 16 11:32:12 2021, MaxMem=   536870912 cpu:               0.0 elap:               0.0
 (Enter /opt/gaussian/g16/sse4/g16/l202.exe)
                          Input orientation:                          
 ---------------------------------------------------------------------
 Center     Atomic      Atomic             Coordinates (Angstroms)
 Number     Number       Type             X           Y           Z
 ---------------------------------------------------------------------
      1          8           0        0.911630   -0.066409    0.015315
      2          1           0        1.855622   -0.044890   -0.026271
      3          1           0        0.641109    0.349788   -0.788994
 ---------------------------------------------------------------------
                    Distance matrix (angstroms):
                    1          2          3
     1  O    0.000000
     2  H    0.945153   0.000000
     3  H    0.945153   1.487467   0.000000
 Stoichiometry    H2O
 Framework group  CS[SG(H2O)]
 Deg. of freedom     3
 Full point group                 CS      NOp   2
 RotChk:  IX=0 Diff= 7.39D-06
 Largest Abelian subgroup         CS      NOp   2
 Largest concise Abelian subgroup C1      NOp   1
                         Standard orientation:                         
 ---------------------------------------------------------------------
 Center     Atomic      Atomic             Coordinates (Angstroms)
 Number     Number       Type             X           Y           Z
 ---------------------------------------------------------------------
      1          8           0       -0.000000    0.116649    0.000000
      2          1           0        0.743734   -0.466595    0.000000
      3          1           0       -0.743734   -0.466596   -0.000000
 ---------------------------------------------------------------------
 Rotational constants (GHZ):         829.9390339         453.2807122         293.1651866
 Leave Link  202 at Thu Dec 16 11:32:12 2021, MaxMem=   536870912 cpu:               0.0 elap:               0.0
 (Enter /opt/gaussian/g16/sse4/g16/l301.exe)
 Standard basis: CC-pVDZ (5D, 7F)
 Ernie: Thresh=  0.10000D-02 Tol=  0.10000D-05 Strict=F.
 Ernie:  2 primitive shells out of 32 were deleted.
 There are    19 symmetry adapted cartesian basis functions of A'  symmetry.
 There are     6 symmetry adapted cartesian basis functions of A"  symmetry.
 There are    18 symmetry adapted basis functions of A'  symmetry.
 There are     6 symmetry adapted basis functions of A"  symmetry.
    24 basis functions,    47 primitive gaussians,    25 cartesian basis functions
     5 alpha electrons        5 beta electrons
       nuclear repulsion energy         9.3139229205 Hartrees.
 IExCor=    0 DFT=F Ex=HF Corr=None ExCW=0 ScaHFX=  1.000000
 ScaDFX=  1.000000  1.000000  1.000000  1.000000 ScalE2=  1.000000  1.000000
 IRadAn=      5 IRanWt=     -1 IRanGd=            0 ICorTp=0 IEmpDi=  4
 NAtoms=    3 NActive=    3 NUniq=    3 SFac= 1.00D+00 NAtFMM=   60 NAOKFM=F Big=F
 Integral buffers will be    131072 words long.
 Raffenetti 1 integral format.
 Two-electron integral symmetry is turned on.
 Leave Link  301 at Thu Dec 16 11:32:12 2021, MaxMem=   536870912 cpu:               0.2 elap:               0.0
 (Enter /opt/gaussian/g16/sse4/g16/l302.exe)
 NPDir=0 NMtPBC=     1 NCelOv=     1 NCel=       1 NClECP=     1 NCelD=      1
         NCelK=      1 NCelE2=     1 NClLst=     1 CellRange=     0.0.
 One-electron integrals computed using PRISM.
 One-electron integral symmetry used in STVInt
 NBasis=    24 RedAO= T EigKep=  3.35D-02  NBF=    18     6
 NBsUse=    24 1.00D-06 EigRej= -1.00D+00 NBFU=    18     6
 Leave Link  302 at Thu Dec 16 11:32:13 2021, MaxMem=   536870912 cpu:               0.5 elap:               0.1
 (Enter /opt/gaussian/g16/sse4/g16/l303.exe)
 DipDrv:  MaxL=1.
 Leave Link  303 at Thu Dec 16 11:32:13 2021, MaxMem=   536870912 cpu:               0.1 elap:               0.0
 (Enter /opt/gaussian/g16/sse4/g16/l401.exe)
 Initial guess from the checkpoint file:  "HF_Water_gaus.chk"
 B after Tr=     0.000000   -0.000000    0.000000
         Rot=    1.000000   -0.000000   -0.000000   -0.000002 Ang=  -0.00 deg.
 Guess basis will be translated and rotated to current coordinates.
 JPrj=2 DoOrth=T DoCkMO=T.
 Initial guess orbital symmetries:
       Occupied  (A') (A') (A') (A') (A")
       Virtual   (A') (A') (A') (A') (A') (A") (A') (A') (A") (A")
                 (A') (A') (A') (A') (A") (A") (A') (A') (A')
 The electronic state of the initial guess is 1-A'.
 Generating alternative initial guess.
 ExpMin= 1.22D-01 ExpMax= 1.17D+04 ExpMxC= 4.01D+02 IAcc=2 IRadAn=         4 AccDes= 0.00D+00
 Harris functional with IExCor=  205 and IRadAn=       4 diagonalized for initial guess.
 HarFok:  IExCor=  205 AccDes= 0.00D+00 IRadAn=         4 IDoV= 1 UseB2=F ITyADJ=14
 ICtDFT=  3500011 ScaDFX=  1.000000  1.000000  1.000000  1.000000
 FoFCou: FMM=F IPFlag=           0 FMFlag=      100000 FMFlg1=           0
         NFxFlg=           0 DoJE=T BraDBF=F KetDBF=T FulRan=T
         wScrn=  0.000000 ICntrl=       500 IOpCl=  0 I1Cent=   200000004 NGrid=           0
         NMat0=    1 NMatS0=      1 NMatT0=    0 NMatD0=    1 NMtDS0=    0 NMtDT0=    0
 Petite list used in FoFCou.
 Harris En= -76.1143639724160    
 Leave Link  401 at Thu Dec 16 11:32:13 2021, MaxMem=   536870912 cpu:               1.0 elap:               0.2
 (Enter /opt/gaussian/g16/sse4/g16/l502.exe)
 Keep R1 ints in memory in symmetry-blocked form, NReq=878187.
 FoFCou: FMM=F IPFlag=           0 FMFlag=           0 FMFlg1=           0
         NFxFlg=           0 DoJE=F BraDBF=F KetDBF=F FulRan=T
         wScrn=  0.000000 ICntrl=       600 IOpCl=  0 I1Cent=           0 NGrid=           0
         NMat0=    1 NMatS0=    300 NMatT0=    0 NMatD0=    1 NMtDS0=    0 NMtDT0=    0
 Petite list used in FoFCou.
 Closed shell SCF:
 Using DIIS extrapolation, IDIIS=  1040.
 NGot=   536870912 LenX=   536843682 LenY=   536842616
 Requested convergence on RMS density matrix=1.00D-08 within 128 cycles.
 Requested convergence on MAX density matrix=1.00D-06.
 Requested convergence on             energy=1.00D-06.
 No special actions if energy rises.

 Cycle   1  Pass 1  IDiag  1:
 E= -76.0266421450227    
 DIIS: error= 4.66D-03 at cycle   1 NSaved=   1.
 NSaved= 1 IEnMin= 1 EnMin= -76.0266421450227     IErMin= 1 ErrMin= 4.66D-03
 ErrMax= 4.66D-03  0.00D+00 EMaxC= 1.00D-01 BMatC= 3.62D-04 BMatP= 3.62D-04
 IDIUse=3 WtCom= 9.53D-01 WtEn= 4.66D-02
 Coeff-Com:  0.100D+01
 Coeff-En:   0.100D+01
 Coeff:      0.100D+01
 Gap=     0.687 Goal=   None    Shift=    0.000
 GapD=    0.687 DampG=2.000 DampE=1.000 DampFc=2.0000 IDamp=-1.
 RMSDP=9.06D-04 MaxDP=6.40D-03              OVMax= 5.80D-03

 Cycle   2  Pass 1  IDiag  1:
 E= -76.0270004638817     Delta-E=       -0.000358318859 Rises=F Damp=F
 DIIS: error= 1.05D-03 at cycle   2 NSaved=   2.
 NSaved= 2 IEnMin= 2 EnMin= -76.0270004638817     IErMin= 2 ErrMin= 1.05D-03
 ErrMax= 1.05D-03  0.00D+00 EMaxC= 1.00D-01 BMatC= 2.73D-05 BMatP= 3.62D-04
 IDIUse=3 WtCom= 9.89D-01 WtEn= 1.05D-02
 Coeff-Com: -0.137D-02 0.100D+01
 Coeff-En:   0.000D+00 0.100D+01
 Coeff:     -0.135D-02 0.100D+01
 Gap=     0.681 Goal=   None    Shift=    0.000
 RMSDP=2.00D-04 MaxDP=1.76D-03 DE=-3.58D-04 OVMax= 1.64D-03

 Cycle   3  Pass 1  IDiag  1:
 E= -76.0270248845503     Delta-E=       -0.000024420669 Rises=F Damp=F
 DIIS: error= 4.00D-04 at cycle   3 NSaved=   3.
 NSaved= 3 IEnMin= 3 EnMin= -76.0270248845503     IErMin= 3 ErrMin= 4.00D-04
 ErrMax= 4.00D-04  0.00D+00 EMaxC= 1.00D-01 BMatC= 4.42D-06 BMatP= 2.73D-05
 IDIUse=3 WtCom= 9.96D-01 WtEn= 4.00D-03
 Coeff-Com: -0.632D-01 0.230D+00 0.833D+00
 Coeff-En:   0.000D+00 0.000D+00 0.100D+01
 Coeff:     -0.630D-01 0.229D+00 0.834D+00
 Gap=     0.682 Goal=   None    Shift=    0.000
 RMSDP=7.78D-05 MaxDP=7.04D-04 DE=-2.44D-05 OVMax= 1.05D-03

 Cycle   4  Pass 1  IDiag  1:
 E= -76.0270296145770     Delta-E=       -0.000004730027 Rises=F Damp=F
 DIIS: error= 1.02D-04 at cycle   4 NSaved=   4.
 NSaved= 4 IEnMin= 4 EnMin= -76.0270296145770     IErMin= 4 ErrMin= 1.02D-04
 ErrMax= 1.02D-04  0.00D+00 EMaxC= 1.00D-01 BMatC= 2.38D-07 BMatP= 4.42D-06
 IDIUse=3 WtCom= 9.99D-01 WtEn= 1.02D-03
 Coeff-Com:  0.149D-02-0.719D-01 0.171D-01 0.105D+01
 Coeff-En:   0.000D+00 0.000D+00 0.000D+00 0.100D+01
 Coeff:      0.149D-02-0.719D-01 0.171D-01 0.105D+01
 Gap=     0.682 Goal=   None    Shift=    0.000
 RMSDP=2.74D-05 MaxDP=1.89D-04 DE=-4.73D-06 OVMax= 3.92D-04

 Cycle   5  Pass 1  IDiag  1:
 E= -76.0270300532412     Delta-E=       -0.000000438664 Rises=F Damp=F
 DIIS: error= 3.21D-05 at cycle   5 NSaved=   5.
 NSaved= 5 IEnMin= 5 EnMin= -76.0270300532412     IErMin= 5 ErrMin= 3.21D-05
 ErrMax= 3.21D-05  0.00D+00 EMaxC= 1.00D-01 BMatC= 1.43D-08 BMatP= 2.38D-07
 IDIUse=1 WtCom= 1.00D+00 WtEn= 0.00D+00
 Coeff-Com:  0.406D-02-0.297D-02-0.508D-01-0.265D+00 0.131D+01
 Coeff:      0.406D-02-0.297D-02-0.508D-01-0.265D+00 0.131D+01
 Gap=     0.682 Goal=   None    Shift=    0.000
 RMSDP=1.16D-05 MaxDP=7.77D-05 DE=-4.39D-07 OVMax= 1.79D-04

 Cycle   6  Pass 1  IDiag  1:
 E= -76.0270300986083     Delta-E=       -0.000000045367 Rises=F Damp=F
 DIIS: error= 4.63D-06 at cycle   6 NSaved=   6.
 NSaved= 6 IEnMin= 6 EnMin= -76.0270300986083     IErMin= 6 ErrMin= 4.63D-06
 ErrMax= 4.63D-06  0.00D+00 EMaxC= 1.00D-01 BMatC= 4.89D-10 BMatP= 1.43D-08
 IDIUse=1 WtCom= 1.00D+00 WtEn= 0.00D+00
 Coeff-Com: -0.138D-02 0.277D-02 0.179D-01 0.636D-01-0.485D+00 0.140D+01
 Coeff:     -0.138D-02 0.277D-02 0.179D-01 0.636D-01-0.485D+00 0.140D+01
 Gap=     0.682 Goal=   None    Shift=    0.000
 RMSDP=1.79D-06 MaxDP=1.61D-05 DE=-4.54D-08 OVMax= 2.65D-05

 Cycle   7  Pass 1  IDiag  1:
 E= -76.0270300998470     Delta-E=       -0.000000001239 Rises=F Damp=F
 DIIS: error= 5.79D-07 at cycle   7 NSaved=   7.
 NSaved= 7 IEnMin= 7 EnMin= -76.0270300998470     IErMin= 7 ErrMin= 5.79D-07
 ErrMax= 5.79D-07  0.00D+00 EMaxC= 1.00D-01 BMatC= 6.88D-12 BMatP= 4.89D-10
 IDIUse=1 WtCom= 1.00D+00 WtEn= 0.00D+00
 Coeff-Com:  0.322D-03-0.609D-03-0.466D-02-0.143D-01 0.122D+00-0.408D+00
 Coeff-Com:  0.131D+01
 Coeff:      0.322D-03-0.609D-03-0.466D-02-0.143D-01 0.122D+00-0.408D+00
 Coeff:      0.131D+01
 Gap=     0.682 Goal=   None    Shift=    0.000
 RMSDP=1.54D-07 MaxDP=1.40D-06 DE=-1.24D-09 OVMax= 1.96D-06

 Cycle   8  Pass 1  IDiag  1:
 E= -76.0270300998602     Delta-E=       -0.000000000013 Rises=F Damp=F
 DIIS: error= 1.01D-07 at cycle   8 NSaved=   8.
 NSaved= 8 IEnMin= 8 EnMin= -76.0270300998602     IErMin= 8 ErrMin= 1.01D-07
 ErrMax= 1.01D-07  0.00D+00 EMaxC= 1.00D-01 BMatC= 1.77D-13 BMatP= 6.88D-12
 IDIUse=1 WtCom= 1.00D+00 WtEn= 0.00D+00
 Coeff-Com: -0.701D-04 0.120D-03 0.109D-02 0.332D-02-0.286D-01 0.102D+00
 Coeff-Com: -0.438D+00 0.136D+01
 Coeff:     -0.701D-04 0.120D-03 0.109D-02 0.332D-02-0.286D-01 0.102D+00
 Coeff:     -0.438D+00 0.136D+01
 Gap=     0.682 Goal=   None    Shift=    0.000
 RMSDP=2.53D-08 MaxDP=2.41D-07 DE=-1.32D-11 OVMax= 3.58D-07

 Cycle   9  Pass 1  IDiag  1:
 E= -76.0270300998606     Delta-E=       -0.000000000000 Rises=F Damp=F
 DIIS: error= 7.08D-09 at cycle   9 NSaved=   9.
 NSaved= 9 IEnMin= 9 EnMin= -76.0270300998606     IErMin= 9 ErrMin= 7.08D-09
 ErrMax= 7.08D-09  0.00D+00 EMaxC= 1.00D-01 BMatC= 1.64D-15 BMatP= 1.77D-13
 IDIUse=1 WtCom= 1.00D+00 WtEn= 0.00D+00
 Coeff-Com:  0.732D-05-0.126D-04-0.119D-03-0.350D-03 0.304D-02-0.113D-01
 Coeff-Com:  0.563D-01-0.249D+00 0.120D+01
 Coeff:      0.732D-05-0.126D-04-0.119D-03-0.350D-03 0.304D-02-0.113D-01
 Coeff:      0.563D-01-0.249D+00 0.120D+01
 Gap=     0.682 Goal=   None    Shift=    0.000
 RMSDP=2.98D-09 MaxDP=2.11D-08 DE=-4.55D-13 OVMax= 3.19D-08

 SCF Done:  E(RHF) =  -76.0270300999     A.U. after    9 cycles
            NFock=  9  Conv=0.30D-08     -V/T= 1.9999
 KE= 7.603767731114D+01 PE=-1.993970776914D+02 EE= 3.801844735990D+01
 Leave Link  502 at Thu Dec 16 11:32:13 2021, MaxMem=   536870912 cpu:               0.6 elap:               0.2
 (Enter /opt/gaussian/g16/sse4/g16/l701.exe)
 ... and contract with generalized density number  0.
 Compute integral first derivatives.
 Leave Link  701 at Thu Dec 16 11:32:14 2021, MaxMem=   536870912 cpu:               0.5 elap:               0.1
 (Enter /opt/gaussian/g16/sse4/g16/l702.exe)
 L702 exits ... SP integral derivatives will be done elsewhere.
 Leave Link  702 at Thu Dec 16 11:32:14 2021, MaxMem=   536870912 cpu:               0.1 elap:               0.0
 (Enter /opt/gaussian/g16/sse4/g16/l703.exe)
 Integral derivatives from FoFJK, PRISM(SPDF).
 Compute integral first derivatives, UseDBF=F ICtDFT=           0.
 Calling FoFJK, ICntrl=      2127 FMM=F ISym2X=1 I1Cent= 0 IOpClX= 0 NMat=1 NMatS=1 NMatT=0.
 FoFJK:  IHMeth= 1 ICntrl=    2127 DoSepK=F KAlg= 0 I1Cent=           0 FoldK=F
 IRaf=         0 NMat=       1 IRICut=       1 DoRegI=T DoRafI=F ISym2E= 1 IDoP0=0 IntGTp=1.
 FoFCou: FMM=F IPFlag=           0 FMFlag=      100000 FMFlg1=         800
         NFxFlg=           0 DoJE=F BraDBF=F KetDBF=F FulRan=T
         wScrn=  0.000000 ICntrl=      2127 IOpCl=  0 I1Cent=           0 NGrid=           0
         NMat0=    1 NMatS0=      1 NMatT0=    0 NMatD0=    1 NMtDS0=    0 NMtDT0=    0
 Petite list used in FoFCou.
 Leave Link  703 at Thu Dec 16 11:32:14 2021, MaxMem=   536870912 cpu:               0.7 elap:               0.2
 (Enter /opt/gaussian/g16/sse4/g16/l716.exe)
 Dipole        = 1.24014338D-07-8.08685963D-01-3.58616587D-17
 ***** Axes restored to original set *****
 -------------------------------------------------------------------
 Center     Atomic                   Forces (Hartrees/Bohr)
 Number     Number              X              Y              Z
 -------------------------------------------------------------------
      1        8           0.000137264    0.000089576   -0.000173107
      2        1           0.001842886   -0.000665870    0.001286807
      3        1          -0.001980150    0.000576294   -0.001113700
 -------------------------------------------------------------------
 Cartesian Forces:  Max     0.001980150 RMS     0.001107838
 Leave Link  716 at Thu Dec 16 11:32:14 2021, MaxMem=   536870912 cpu:               0.1 elap:               0.0
 (Enter /opt/gaussian/g16/sse4/g16/l103.exe)

 GradGradGradGradGradGradGradGradGradGradGradGradGradGradGradGradGradGrad
 Berny optimization.
 Using GEDIIS/GDIIS optimizer.
 FormGI is forming the generalized inverse of G from B-inverse, IUseBI=4.
 Internal  Forces:  Max     0.002747704 RMS     0.002145185
 Search for a local minimum.
 Step number   2 out of a maximum of   20
 All quantities printed in internal units (Hartrees-Bohrs-Radians)
 RMS Force = .21452D-02 SwitMx=.10000D-02 MixMth= 1
 Mixed Optimization -- RFO/linear search
 Update second derivatives using D2CorX and points    1    2
 DE= -1.04D-03 DEPred=-1.10D-03 R= 9.49D-01
 TightC=F SS=  1.41D+00  RLast= 6.38D-02 DXNew= 5.0454D-01 1.9144D-01
 Trust test= 9.49D-01 RLast= 6.38D-02 DXMaxT set to 3.00D-01
 The second derivative matrix:
                          R1        R2        A1
           R1           0.55544
           R2           0.01962   0.55544
           A1           0.03041   0.03040   0.16443
 ITU=  1  0
 Use linear search instead of GDIIS.
     Eigenvalues ---    0.15997   0.53582   0.57951
 RFO step:  Lambda=-3.97514620D-05 EMin= 1.59972515D-01
 Quartic linear search produced a step of -0.06629.
 Iteration  1 RMS(Cart)=  0.00965739 RMS(Int)=  0.00004725
 Iteration  2 RMS(Cart)=  0.00003611 RMS(Int)=  0.00000000
 Iteration  3 RMS(Cart)=  0.00000000 RMS(Int)=  0.00000000
 ITry= 1 IFail=0 DXMaxC= 1.03D-02 DCOld= 1.00D+10 DXMaxT= 3.00D-01 DXLimC= 3.00D+00 Rises=F
 ClnCor:  largest displacement from symmetrization is 9.46D-16 for atom     2.
 Variable       Old X    -DE/DX   Delta X   Delta X   Delta X     New X
                                 (Linear)    (Quad)   (Total)
    R1        1.78608   0.00177   0.00299  -0.00099   0.00200   1.78808
    R2        1.78608   0.00177   0.00299  -0.00099   0.00200   1.78808
    A1        1.81151   0.00275   0.00022   0.01569   0.01591   1.82742
         Item               Value     Threshold  Converged?
 Maximum Force            0.002748     0.000450     NO 
 RMS     Force            0.002145     0.000300     NO 
 Maximum Displacement     0.010338     0.001800     NO 
 RMS     Displacement     0.009643     0.001200     NO 
 Predicted change in Energy=-2.574445D-05
 Lowest energy point so far.  Saving SCF results.
 GradGradGradGradGradGradGradGradGradGradGradGradGradGradGradGradGradGrad

 Leave Link  103 at Thu Dec 16 11:32:14 2021, MaxMem=   536870912 cpu:               0.0 elap:               0.0
 (Enter /opt/gaussian/g16/sse4/g16/l202.exe)
                          Input orientation:                          
 ---------------------------------------------------------------------
 Center     Atomic      Atomic             Coordinates (Angstroms)
 Number     Number       Type             X           Y           Z
 ---------------------------------------------------------------------
      1          8           0        0.913665   -0.065086    0.012759
      2          1           0        1.859057   -0.046998   -0.022196
      3          1           0        0.635638    0.350574   -0.790512
 ---------------------------------------------------------------------
                    Distance matrix (angstroms):
                    1          2          3
     1  O    0.000000
     2  H    0.946211   0.000000
     3  H    0.946211   1.498375   0.000000
 Stoichiometry    H2O
 Framework group  CS[SG(H2O)]
 Deg. of freedom     3
 Full point group                 CS      NOp   2
 RotChk:  IX=0 Diff= 5.41D-07
 Largest Abelian subgroup         CS      NOp   2
 Largest concise Abelian subgroup C1      NOp   1
                         Standard orientation:                         
 ---------------------------------------------------------------------
 Center     Atomic      Atomic             Coordinates (Angstroms)
 Number     Number       Type             X           Y           Z
 ---------------------------------------------------------------------
      1          8           0        0.000000    0.115591    0.000000
      2          1           0        0.749187   -0.462365    0.000000
      3          1           0       -0.749187   -0.462365   -0.000000
 ---------------------------------------------------------------------
 Rotational constants (GHZ):         845.1946192         446.7054780         292.2463333
 Leave Link  202 at Thu Dec 16 11:32:14 2021, MaxMem=   536870912 cpu:               0.0 elap:               0.0
 (Enter /opt/gaussian/g16/sse4/g16/l301.exe)
 Standard basis: CC-pVDZ (5D, 7F)
 Ernie: Thresh=  0.10000D-02 Tol=  0.10000D-05 Strict=F.
 Ernie:  2 primitive shells out of 32 were deleted.
 There are    19 symmetry adapted cartesian basis functions of A'  symmetry.
 There are     6 symmetry adapted cartesian basis functions of A"  symmetry.
 There are    18 symmetry adapted basis functions of A'  symmetry.
 There are     6 symmetry adapted basis functions of A"  symmetry.
    24 basis functions,    47 primitive gaussians,    25 cartesian basis functions
     5 alpha electrons        5 beta electrons
       nuclear repulsion energy         9.3013129557 Hartrees.
 IExCor=    0 DFT=F Ex=HF Corr=None ExCW=0 ScaHFX=  1.000000
 ScaDFX=  1.000000  1.000000  1.000000  1.000000 ScalE2=  1.000000  1.000000
 IRadAn=      5 IRanWt=     -1 IRanGd=            0 ICorTp=0 IEmpDi=  4
 NAtoms=    3 NActive=    3 NUniq=    3 SFac= 1.00D+00 NAtFMM=   60 NAOKFM=F Big=F
 Integral buffers will be    131072 words long.
 Raffenetti 1 integral format.
 Two-electron integral symmetry is turned on.
 Leave Link  301 at Thu Dec 16 11:32:15 2021, MaxMem=   536870912 cpu:               0.2 elap:               0.0
 (Enter /opt/gaussian/g16/sse4/g16/l302.exe)
 NPDir=0 NMtPBC=     1 NCelOv=     1 NCel=       1 NClECP=     1 NCelD=      1
         NCelK=      1 NCelE2=     1 NClLst=     1 CellRange=     0.0.
 One-electron integrals computed using PRISM.
 One-electron integral symmetry used in STVInt
 NBasis=    24 RedAO= T EigKep=  3.37D-02  NBF=    18     6
 NBsUse=    24 1.00D-06 EigRej= -1.00D+00 NBFU=    18     6
 Leave Link  302 at Thu Dec 16 11:32:15 2021, MaxMem=   536870912 cpu:               0.6 elap:               0.1
 (Enter /opt/gaussian/g16/sse4/g16/l303.exe)
 DipDrv:  MaxL=1.
 Leave Link  303 at Thu Dec 16 11:32:15 2021, MaxMem=   536870912 cpu:               0.1 elap:               0.0
 (Enter /opt/gaussian/g16/sse4/g16/l401.exe)
 Initial guess from the checkpoint file:  "HF_Water_gaus.chk"
 B after Tr=     0.000000    0.000000   -0.000000
         Rot=    1.000000   -0.000000    0.000000    0.000000 Ang=   0.00 deg.
 Guess basis will be translated and rotated to current coordinates.
 JPrj=2 DoOrth=T DoCkMO=T.
 Initial guess orbital symmetries:
       Occupied  (A') (A') (A') (A') (A")
       Virtual   (A') (A') (A') (A') (A') (A") (A') (A') (A") (A")
                 (A') (A') (A') (A') (A") (A") (A') (A') (A')
 The electronic state of the initial guess is 1-A'.
 Leave Link  401 at Thu Dec 16 11:32:15 2021, MaxMem=   536870912 cpu:               0.3 elap:               0.1
 (Enter /opt/gaussian/g16/sse4/g16/l502.exe)
 Keep R1 ints in memory in symmetry-blocked form, NReq=878187.
 FoFCou: FMM=F IPFlag=           0 FMFlag=           0 FMFlg1=           0
         NFxFlg=           0 DoJE=F BraDBF=F KetDBF=F FulRan=T
         wScrn=  0.000000 ICntrl=       600 IOpCl=  0 I1Cent=           0 NGrid=           0
         NMat0=    1 NMatS0=    300 NMatT0=    0 NMatD0=    1 NMtDS0=    0 NMtDT0=    0
 Petite list used in FoFCou.
 Closed shell SCF:
 Using DIIS extrapolation, IDIIS=  1040.
 NGot=   536870912 LenX=   536843682 LenY=   536842616
 Requested convergence on RMS density matrix=1.00D-08 within 128 cycles.
 Requested convergence on MAX density matrix=1.00D-06.
 Requested convergence on             energy=1.00D-06.
 No special actions if energy rises.

 Cycle   1  Pass 1  IDiag  1:
 E= -76.0270379520548    
 DIIS: error= 7.95D-04 at cycle   1 NSaved=   1.
 NSaved= 1 IEnMin= 1 EnMin= -76.0270379520548     IErMin= 1 ErrMin= 7.95D-04
 ErrMax= 7.95D-04  0.00D+00 EMaxC= 1.00D-01 BMatC= 1.38D-05 BMatP= 1.38D-05
 IDIUse=3 WtCom= 9.92D-01 WtEn= 7.95D-03
 Coeff-Com:  0.100D+01
 Coeff-En:   0.100D+01
 Coeff:      0.100D+01
 Gap=     0.681 Goal=   None    Shift=    0.000
 RMSDP=2.04D-04 MaxDP=1.51D-03              OVMax= 1.23D-03

 Cycle   2  Pass 1  IDiag  1:
 E= -76.0270526091869     Delta-E=       -0.000014657132 Rises=F Damp=F
 DIIS: error= 1.34D-04 at cycle   2 NSaved=   2.
 NSaved= 2 IEnMin= 2 EnMin= -76.0270526091869     IErMin= 2 ErrMin= 1.34D-04
 ErrMax= 1.34D-04  0.00D+00 EMaxC= 1.00D-01 BMatC= 4.93D-07 BMatP= 1.38D-05
 IDIUse=3 WtCom= 9.99D-01 WtEn= 1.34D-03
 Coeff-Com: -0.206D+00 0.121D+01
 Coeff-En:   0.000D+00 0.100D+01
 Coeff:     -0.206D+00 0.121D+01
 Gap=     0.681 Goal=   None    Shift=    0.000
 RMSDP=4.77D-05 MaxDP=3.56D-04 DE=-1.47D-05 OVMax= 3.65D-04

 Cycle   3  Pass 1  IDiag  1:
 E= -76.0270532765372     Delta-E=       -0.000000667350 Rises=F Damp=F
 DIIS: error= 1.90D-05 at cycle   3 NSaved=   3.
 NSaved= 3 IEnMin= 3 EnMin= -76.0270532765372     IErMin= 3 ErrMin= 1.90D-05
 ErrMax= 1.90D-05  0.00D+00 EMaxC= 1.00D-01 BMatC= 8.77D-09 BMatP= 4.93D-07
 IDIUse=1 WtCom= 1.00D+00 WtEn= 0.00D+00
 Coeff-Com:  0.586D-02-0.707D-01 0.106D+01
 Coeff:      0.586D-02-0.707D-01 0.106D+01
 Gap=     0.681 Goal=   None    Shift=    0.000
 RMSDP=4.31D-06 MaxDP=3.33D-05 DE=-6.67D-07 OVMax= 4.53D-05

 Cycle   4  Pass 1  IDiag  1:
 E= -76.0270532862845     Delta-E=       -0.000000009747 Rises=F Damp=F
 DIIS: error= 7.98D-06 at cycle   4 NSaved=   4.
 NSaved= 4 IEnMin= 4 EnMin= -76.0270532862845     IErMin= 4 ErrMin= 7.98D-06
 ErrMax= 7.98D-06  0.00D+00 EMaxC= 1.00D-01 BMatC= 1.38D-09 BMatP= 8.77D-09
 IDIUse=1 WtCom= 1.00D+00 WtEn= 0.00D+00
 Coeff-Com:  0.158D-01-0.102D+00 0.267D+00 0.819D+00
 Coeff:      0.158D-01-0.102D+00 0.267D+00 0.819D+00
 Gap=     0.681 Goal=   None    Shift=    0.000
 RMSDP=1.42D-06 MaxDP=1.08D-05 DE=-9.75D-09 OVMax= 1.78D-05

 Cycle   5  Pass 1  IDiag  1:
 E= -76.0270532877952     Delta-E=       -0.000000001511 Rises=F Damp=F
 DIIS: error= 1.98D-06 at cycle   5 NSaved=   5.
 NSaved= 5 IEnMin= 5 EnMin= -76.0270532877952     IErMin= 5 ErrMin= 1.98D-06
 ErrMax= 1.98D-06  0.00D+00 EMaxC= 1.00D-01 BMatC= 6.46D-11 BMatP= 1.38D-09
 IDIUse=1 WtCom= 1.00D+00 WtEn= 0.00D+00
 Coeff-Com: -0.296D-02 0.211D-01-0.112D+00-0.804D-01 0.117D+01
 Coeff:     -0.296D-02 0.211D-01-0.112D+00-0.804D-01 0.117D+01
 Gap=     0.681 Goal=   None    Shift=    0.000
 RMSDP=4.92D-07 MaxDP=3.85D-06 DE=-1.51D-09 OVMax= 6.65D-06

 Cycle   6  Pass 1  IDiag  1:
 E= -76.0270532879155     Delta-E=       -0.000000000120 Rises=F Damp=F
 DIIS: error= 3.66D-07 at cycle   6 NSaved=   6.
 NSaved= 6 IEnMin= 6 EnMin= -76.0270532879155     IErMin= 6 ErrMin= 3.66D-07
 ErrMax= 3.66D-07  0.00D+00 EMaxC= 1.00D-01 BMatC= 2.48D-12 BMatP= 6.46D-11
 IDIUse=1 WtCom= 1.00D+00 WtEn= 0.00D+00
 Coeff-Com: -0.584D-03 0.328D-02-0.185D-02-0.289D-01-0.192D+00 0.122D+01
 Coeff:     -0.584D-03 0.328D-02-0.185D-02-0.289D-01-0.192D+00 0.122D+01
 Gap=     0.681 Goal=   None    Shift=    0.000
 RMSDP=1.40D-07 MaxDP=9.38D-07 DE=-1.20D-10 OVMax= 2.09D-06

 Cycle   7  Pass 1  IDiag  1:
 E= -76.0270532879227     Delta-E=       -0.000000000007 Rises=F Damp=F
 DIIS: error= 5.45D-08 at cycle   7 NSaved=   7.
 NSaved= 7 IEnMin= 7 EnMin= -76.0270532879227     IErMin= 7 ErrMin= 5.45D-08
 ErrMax= 5.45D-08  0.00D+00 EMaxC= 1.00D-01 BMatC= 8.42D-14 BMatP= 2.48D-12
 IDIUse=1 WtCom= 1.00D+00 WtEn= 0.00D+00
 Coeff-Com:  0.263D-03-0.160D-02 0.399D-02 0.112D-01 0.209D-01-0.371D+00
 Coeff-Com:  0.134D+01
 Coeff:      0.263D-03-0.160D-02 0.399D-02 0.112D-01 0.209D-01-0.371D+00
 Coeff:      0.134D+01
 Gap=     0.681 Goal=   None    Shift=    0.000
 RMSDP=2.28D-08 MaxDP=2.16D-07 DE=-7.22D-12 OVMax= 3.52D-07

 Cycle   8  Pass 1  IDiag  1:
 E= -76.0270532879229     Delta-E=       -0.000000000000 Rises=F Damp=F
 DIIS: error= 1.27D-08 at cycle   8 NSaved=   8.
 NSaved= 8 IEnMin= 8 EnMin= -76.0270532879229     IErMin= 8 ErrMin= 1.27D-08
 ErrMax= 1.27D-08  0.00D+00 EMaxC= 1.00D-01 BMatC= 3.11D-15 BMatP= 8.42D-14
 IDIUse=1 WtCom= 1.00D+00 WtEn= 0.00D+00
 Coeff-Com: -0.760D-04 0.473D-03-0.142D-02-0.325D-02 0.182D-02 0.812D-01
 Coeff-Com: -0.447D+00 0.137D+01
 Coeff:     -0.760D-04 0.473D-03-0.142D-02-0.325D-02 0.182D-02 0.812D-01
 Coeff:     -0.447D+00 0.137D+01
 Gap=     0.681 Goal=   None    Shift=    0.000
 RMSDP=3.84D-09 MaxDP=3.72D-08 DE=-2.27D-13 OVMax= 4.59D-08

 SCF Done:  E(RHF) =  -76.0270532879     A.U. after    8 cycles
            NFock=  8  Conv=0.38D-08     -V/T= 1.9999
 KE= 7.603200825790D+01 PE=-1.993720014807D+02 EE= 3.801162697918D+01
 Leave Link  502 at Thu Dec 16 11:32:16 2021, MaxMem=   536870912 cpu:               0.6 elap:               0.2
 (Enter /opt/gaussian/g16/sse4/g16/l701.exe)
 ... and contract with generalized density number  0.
 Compute integral first derivatives.
 Leave Link  701 at Thu Dec 16 11:32:16 2021, MaxMem=   536870912 cpu:               0.7 elap:               0.2
 (Enter /opt/gaussian/g16/sse4/g16/l702.exe)
 L702 exits ... SP integral derivatives will be done elsewhere.
 Leave Link  702 at Thu Dec 16 11:32:16 2021, MaxMem=   536870912 cpu:               0.1 elap:               0.0
 (Enter /opt/gaussian/g16/sse4/g16/l703.exe)
 Integral derivatives from FoFJK, PRISM(SPDF).
 Compute integral first derivatives, UseDBF=F ICtDFT=           0.
 Calling FoFJK, ICntrl=      2127 FMM=F ISym2X=1 I1Cent= 0 IOpClX= 0 NMat=1 NMatS=1 NMatT=0.
 FoFJK:  IHMeth= 1 ICntrl=    2127 DoSepK=F KAlg= 0 I1Cent=           0 FoldK=F
 IRaf=         0 NMat=       1 IRICut=       1 DoRegI=T DoRafI=F ISym2E= 1 IDoP0=0 IntGTp=1.
 FoFCou: FMM=F IPFlag=           0 FMFlag=      100000 FMFlg1=         800
         NFxFlg=           0 DoJE=F BraDBF=F KetDBF=F FulRan=T
         wScrn=  0.000000 ICntrl=      2127 IOpCl=  0 I1Cent=           0 NGrid=           0
         NMat0=    1 NMatS0=      1 NMatT0=    0 NMatD0=    1 NMtDS0=    0 NMtDT0=    0
 Petite list used in FoFCou.
 Leave Link  703 at Thu Dec 16 11:32:16 2021, MaxMem=   536870912 cpu:               0.7 elap:               0.2
 (Enter /opt/gaussian/g16/sse4/g16/l716.exe)
 Dipole        = 1.56478057D-08-8.03685914D-01-9.07018751D-17
 ***** Axes restored to original set *****
 -------------------------------------------------------------------
 Center     Atomic                   Forces (Hartrees/Bohr)
 Number     Number              X              Y              Z
 -------------------------------------------------------------------
      1        8          -0.000169925   -0.000110395    0.000213340
      2        1           0.000033245    0.000072017   -0.000139174
      3        1           0.000136680    0.000038378   -0.000074166
 -------------------------------------------------------------------
 Cartesian Forces:  Max     0.000213340 RMS     0.000123779
 Leave Link  716 at Thu Dec 16 11:32:16 2021, MaxMem=   536870912 cpu:               0.1 elap:               0.0
 (Enter /opt/gaussian/g16/sse4/g16/l103.exe)

 GradGradGradGradGradGradGradGradGradGradGradGradGradGradGradGradGradGrad
 Berny optimization.
 Using GEDIIS/GDIIS optimizer.
 FormGI is forming the generalized inverse of G from B-inverse, IUseBI=4.
 Internal  Forces:  Max     0.000277481 RMS     0.000163450
 Search for a local minimum.
 Step number   3 out of a maximum of   20
 All quantities printed in internal units (Hartrees-Bohrs-Radians)
 RMS Force = .16345D-03 SwitMx=.10000D-02 MixMth= 2
 Mixed Optimization -- En-DIIS/RFO-DIIS
 Update second derivatives using D2CorX and points    1    2    3
 DE= -2.32D-05 DEPred=-2.57D-05 R= 9.01D-01
 TightC=F SS=  1.41D+00  RLast= 1.62D-02 DXNew= 5.0454D-01 4.8474D-02
 Trust test= 9.01D-01 RLast= 1.62D-02 DXMaxT set to 3.00D-01
 The second derivative matrix:
                          R1        R2        A1
           R1           0.55820
           R2           0.02238   0.55819
           A1           0.03569   0.03568   0.18119
 ITU=  1  1  0
 Use linear search instead of GDIIS.
     Eigenvalues ---    0.17491   0.53582   0.58685
 RFO step:  Lambda=-1.28520672D-07 EMin= 1.74913109D-01
 Quartic linear search produced a step of -0.07792.
 Iteration  1 RMS(Cart)=  0.00084446 RMS(Int)=  0.00000048
 Iteration  2 RMS(Cart)=  0.00000046 RMS(Int)=  0.00000000
 ITry= 1 IFail=0 DXMaxC= 8.48D-04 DCOld= 1.00D+10 DXMaxT= 3.00D-01 DXLimC= 3.00D+00 Rises=F
 ClnCor:  largest displacement from symmetrization is 1.36D-15 for atom     2.
 Variable       Old X    -DE/DX   Delta X   Delta X   Delta X     New X
                                 (Linear)    (Quad)   (Total)
    R1        1.78808   0.00004  -0.00016   0.00032   0.00017   1.78825
    R2        1.78808   0.00004  -0.00016   0.00032   0.00017   1.78825
    A1        1.82742  -0.00028  -0.00124  -0.00037  -0.00161   1.82581
         Item               Value     Threshold  Converged?
 Maximum Force            0.000277     0.000450     YES
 RMS     Force            0.000163     0.000300     YES
 Maximum Displacement     0.000848     0.001800     YES
 RMS     Displacement     0.000845     0.001200     YES
 Predicted change in Energy=-2.281721D-07
 Optimization completed.
    -- Stationary point found.
                           ----------------------------
                           !   Optimized Parameters   !
                           ! (Angstroms and Degrees)  !
 --------------------------                            --------------------------
 ! Name  Definition              Value          Derivative Info.                !
 --------------------------------------------------------------------------------
 ! R1    R(1,2)                  0.9462         -DE/DX =    0.0                 !
 ! R2    R(1,3)                  0.9462         -DE/DX =    0.0                 !
 ! A1    A(2,1,3)              104.7036         -DE/DX =   -0.0003              !
 --------------------------------------------------------------------------------
 Lowest energy point so far.  Saving SCF results.
 Largest change from initial coordinates is atom    2       0.021 Angstoms.
 GradGradGradGradGradGradGradGradGradGradGradGradGradGradGradGradGradGrad

 Leave Link  103 at Thu Dec 16 11:32:16 2021, MaxMem=   536870912 cpu:               0.0 elap:               0.0
 (Enter /opt/gaussian/g16/sse4/g16/l202.exe)
                          Input orientation:                          
 ---------------------------------------------------------------------
 Center     Atomic      Atomic             Coordinates (Angstroms)
 Number     Number       Type             X           Y           Z
 ---------------------------------------------------------------------
      1          8           0        0.913665   -0.065086    0.012759
      2          1           0        1.859057   -0.046998   -0.022196
      3          1           0        0.635638    0.350574   -0.790512
 ---------------------------------------------------------------------
                    Distance matrix (angstroms):
                    1          2          3
     1  O    0.000000
     2  H    0.946211   0.000000
     3  H    0.946211   1.498375   0.000000
 Stoichiometry    H2O
 Framework group  CS[SG(H2O)]
 Deg. of freedom     3
 Full point group                 CS      NOp   2
 RotChk:  IX=0 Diff= 8.63D-16
 Largest Abelian subgroup         CS      NOp   2
 Largest concise Abelian subgroup C1      NOp   1
                         Standard orientation:                         
 ---------------------------------------------------------------------
 Center     Atomic      Atomic             Coordinates (Angstroms)
 Number     Number       Type             X           Y           Z
 ---------------------------------------------------------------------
      1          8           0        0.000000    0.115591   -0.000000
      2          1           0        0.749187   -0.462365    0.000000
      3          1           0       -0.749187   -0.462365   -0.000000
 ---------------------------------------------------------------------
 Rotational constants (GHZ):         845.1946192         446.7054780         292.2463333
 Leave Link  202 at Thu Dec 16 11:32:16 2021, MaxMem=   536870912 cpu:               0.0 elap:               0.0
 (Enter /opt/gaussian/g16/sse4/g16/l601.exe)
 Copying SCF densities to generalized density rwf, IOpCl= 0 IROHF=0.

 **********************************************************************

            Population analysis using the SCF density.

 **********************************************************************

 Orbital symmetries:
       Occupied  (A') (A') (A') (A') (A")
       Virtual   (A') (A') (A') (A') (A') (A") (A') (A') (A") (A")
                 (A') (A') (A') (A') (A") (A") (A') (A') (A')
 The electronic state is 1-A'.
 Alpha  occ. eigenvalues --  -20.54837  -1.34224  -0.70564  -0.56823  -0.49390
 Alpha virt. eigenvalues --    0.18744   0.25781   0.79804   0.86404   1.16256
 Alpha virt. eigenvalues --    1.20042   1.25251   1.44468   1.47858   1.67803
 Alpha virt. eigenvalues --    1.86547   1.94613   2.47984   2.51820   3.29447
 Alpha virt. eigenvalues --    3.35064   3.52431   3.87975   4.15901
          Condensed to atoms (all electrons):
               1          2          3
     1  O    7.551811   0.370261   0.370261
     2  H    0.370261   0.516998  -0.033426
     3  H    0.370261  -0.033426   0.516998
 Mulliken charges:
               1
     1  O   -0.292333
     2  H    0.146167
     3  H    0.146167
 Sum of Mulliken charges =  -0.00000
 Mulliken charges with hydrogens summed into heavy atoms:
               1
     1  O   -0.000000
 Electronic spatial extent (au):  <R**2>=             18.5798
 Charge=             -0.0000 electrons
 Dipole moment (field-independent basis, Debye):
    X=              0.0000    Y=             -2.0428    Z=              0.0000  Tot=              2.0428
 Quadrupole moment (field-independent basis, Debye-Ang):
   XX=             -4.1368   YY=             -5.8864   ZZ=             -7.0082
   XY=              0.0000   XZ=             -0.0000   YZ=             -0.0000
 Traceless Quadrupole moment (field-independent basis, Debye-Ang):
   XX=              1.5403   YY=             -0.2092   ZZ=             -1.3311
   XY=              0.0000   XZ=             -0.0000   YZ=             -0.0000
 Octapole moment (field-independent basis, Debye-Ang**2):
  XXX=              0.0000  YYY=             -1.2027  ZZZ=              0.0000  XYY=             -0.0000
  XXY=             -1.2598  XXZ=              0.0000  XZZ=              0.0000  YZZ=             -0.3051
  YYZ=              0.0000  XYZ=              0.0000
 Hexadecapole moment (field-independent basis, Debye-Ang**3):
 XXXX=             -5.4282 YYYY=             -5.7552 ZZZZ=             -4.8200 XXXY=             -0.0000
 XXXZ=             -0.0000 YYYX=             -0.0000 YYYZ=             -0.0000 ZZZX=             -0.0000
 ZZZY=             -0.0000 XXYY=             -1.5148 XXZZ=             -1.9933 YYZZ=             -1.8175
 XXYZ=             -0.0000 YYXZ=             -0.0000 ZZXY=             -0.0000
 N-N= 9.301312955721D+00 E-N=-1.993720015148D+02  KE= 7.603200825790D+01
 Symmetry A'   KE= 7.147712124328D+01
 Symmetry A"   KE= 4.554887014625D+00
 No NMR shielding tensors so no spin-rotation constants.
 Leave Link  601 at Thu Dec 16 11:32:17 2021, MaxMem=   536870912 cpu:               0.7 elap:               0.2
 (Enter /opt/gaussian/g16/sse4/g16/l9999.exe)
 1\1\GINC-NODE702\FOpt\RHF\CC-pVDZ\H2O1\THEOB\16-Dec-2021\0\\#p opt fre
 q hf/cc-pvdz geom=connectivity polar\\Water.xyz\\0,1\O,0.9136647465,-0
 .0650858819,0.0127585274\H,1.8590570202,-0.0469981583,-0.0221963858\H,
 0.6356382333,0.3505740402,-0.7905121416\\Version=ES64L-G16RevA.03\Stat
 e=1-A'\HF=-76.0270533\RMSD=3.840e-09\RMSF=1.238e-04\Dipole=0.4640074,0
 .3015769,-0.5828032\Quadrupole=0.7116071,-0.7218934,0.0102863,-0.28179
 61,0.5445762,-0.5174197\PG=CS [SG(H2O1)]\\@


 EVERYTHING'S GOT A MORAL, IF ONLY YOU CAN FIND IT.

                                    -- LEWIS CARROL, ALICE IN WONDERLAND
 Leave Link 9999 at Thu Dec 16 11:32:17 2021, MaxMem=   536870912 cpu:               0.1 elap:               0.0
 Job cpu time:       0 days  0 hours  0 minutes 12.8 seconds.
 Elapsed time:       0 days  0 hours  0 minutes  3.3 seconds.
 File lengths (MBytes):  RWF=      6 Int=      0 D2E=      0 Chk=      2 Scr=      1
 Normal termination of Gaussian 16 at Thu Dec 16 11:32:17 2021.
 (Enter /opt/gaussian/g16/sse4/g16/l1.exe)
 Link1:  Proceeding to internal job step number  2.
 ----------------------------------------------------------------
 #P Geom=AllCheck Guess=TCheck SCRF=Check GenChk RHF/CC-pVDZ Freq
 ----------------------------------------------------------------
 1/10=4,29=7,30=1,38=1,40=1/1,3;
 2/12=2,40=1/2;
 3/5=16,11=1,14=-4,25=1,30=1,70=2,71=2,116=1,140=1/1,2,3;
 4/5=101/1;
 5/5=2,38=6,98=1/2;
 8/6=4,10=90,11=11/1;
 10/13=10,15=4/2;
 11/6=3,8=1,9=11,15=111,16=1/1,2,10;
 10/6=1/2;
 6/7=2,8=2,9=2,10=2,28=1/1;
 7/8=1,10=1,25=1/1,2,3,16;
 1/10=4,30=1/3;
 99//99;
 Leave Link    1 at Thu Dec 16 11:32:17 2021, MaxMem=   536870912 cpu:               0.1 elap:               0.0
 (Enter /opt/gaussian/g16/sse4/g16/l101.exe)
 Structure from the checkpoint file:  "HF_Water_gaus.chk"
 ---------
 Water.xyz
 ---------
 Charge =  0 Multiplicity = 1
 Redundant internal coordinates found in file.  (old form).
 O,0,0.9136647465,-0.0650858819,0.0127585274
 H,0,1.8590570202,-0.0469981583,-0.0221963858
 H,0,0.6356382333,0.3505740402,-0.7905121416
 Recover connectivity data from disk.
 ITRead=  0  0  0
 MicOpt= -1 -1 -1
 NAtoms=      3 NQM=        3 NQMF=       0 NMMI=      0 NMMIF=      0
                NMic=       0 NMicF=      0.
                    Isotopes and Nuclear Properties:
 (Nuclear quadrupole moments (NQMom) in fm**2, nuclear magnetic moments (NMagM)
  in nuclear magnetons)

  Atom         1           2           3
 IAtWgt=          16           1           1
 AtmWgt=  15.9949146   1.0078250   1.0078250
 NucSpn=           0           1           1
 AtZEff=   5.6000000   1.0000000   1.0000000
 NQMom=    0.0000000   0.0000000   0.0000000
 NMagM=    0.0000000   2.7928460   2.7928460
 AtZNuc=   8.0000000   1.0000000   1.0000000
 Leave Link  101 at Thu Dec 16 11:32:17 2021, MaxMem=   536870912 cpu:               1.2 elap:               0.3
 (Enter /opt/gaussian/g16/sse4/g16/l103.exe)

 GradGradGradGradGradGradGradGradGradGradGradGradGradGradGradGradGradGrad
 Berny optimization.
 Initialization pass.
                           ----------------------------
                           !    Initial Parameters    !
                           ! (Angstroms and Degrees)  !
 --------------------------                            --------------------------
 ! Name  Definition              Value          Derivative Info.                !
 --------------------------------------------------------------------------------
 ! R1    R(1,2)                  0.9462         calculate D2E/DX2 analytically  !
 ! R2    R(1,3)                  0.9462         calculate D2E/DX2 analytically  !
 ! A1    A(2,1,3)              104.7036         calculate D2E/DX2 analytically  !
 --------------------------------------------------------------------------------
 Trust Radius=3.00D-01 FncErr=1.00D-07 GrdErr=1.00D-07 EigMax=2.50D+02 EigMin=1.00D-04
 Number of steps in this run=      2 maximum allowed number of steps=      2.
 GradGradGradGradGradGradGradGradGradGradGradGradGradGradGradGradGradGrad

 Leave Link  103 at Thu Dec 16 11:32:18 2021, MaxMem=   536870912 cpu:               0.0 elap:               0.0
 (Enter /opt/gaussian/g16/sse4/g16/l202.exe)
                          Input orientation:                          
 ---------------------------------------------------------------------
 Center     Atomic      Atomic             Coordinates (Angstroms)
 Number     Number       Type             X           Y           Z
 ---------------------------------------------------------------------
      1          8           0        0.913665   -0.065086    0.012759
      2          1           0        1.859057   -0.046998   -0.022196
      3          1           0        0.635638    0.350574   -0.790512
 ---------------------------------------------------------------------
                    Distance matrix (angstroms):
                    1          2          3
     1  O    0.000000
     2  H    0.946211   0.000000
     3  H    0.946211   1.498375   0.000000
 Stoichiometry    H2O
 Framework group  CS[SG(H2O)]
 Deg. of freedom     3
 Full point group                 CS      NOp   2
 RotChk:  IX=0 Diff= 9.73D-16
 Largest Abelian subgroup         CS      NOp   2
 Largest concise Abelian subgroup C1      NOp   1
                         Standard orientation:                         
 ---------------------------------------------------------------------
 Center     Atomic      Atomic             Coordinates (Angstroms)
 Number     Number       Type             X           Y           Z
 ---------------------------------------------------------------------
      1          8           0        0.000000    0.115591   -0.000000
      2          1           0        0.749187   -0.462365    0.000000
      3          1           0       -0.749187   -0.462365   -0.000000
 ---------------------------------------------------------------------
 Rotational constants (GHZ):         845.1946192         446.7054780         292.2463333
 Leave Link  202 at Thu Dec 16 11:32:18 2021, MaxMem=   536870912 cpu:               0.0 elap:               0.0
 (Enter /opt/gaussian/g16/sse4/g16/l301.exe)
 Standard basis: CC-pVDZ (5D, 7F)
 Ernie: Thresh=  0.10000D-02 Tol=  0.10000D-05 Strict=F.
 Ernie:  2 primitive shells out of 32 were deleted.
 There are    19 symmetry adapted cartesian basis functions of A'  symmetry.
 There are     6 symmetry adapted cartesian basis functions of A"  symmetry.
 There are    18 symmetry adapted basis functions of A'  symmetry.
 There are     6 symmetry adapted basis functions of A"  symmetry.
    24 basis functions,    47 primitive gaussians,    25 cartesian basis functions
     5 alpha electrons        5 beta electrons
       nuclear repulsion energy         9.3013129557 Hartrees.
 IExCor=    0 DFT=F Ex=HF Corr=None ExCW=0 ScaHFX=  1.000000
 ScaDFX=  1.000000  1.000000  1.000000  1.000000 ScalE2=  1.000000  1.000000
 IRadAn=      5 IRanWt=     -1 IRanGd=            0 ICorTp=0 IEmpDi=  4
 NAtoms=    3 NActive=    3 NUniq=    3 SFac= 1.00D+00 NAtFMM=   60 NAOKFM=F Big=F
 Integral buffers will be    131072 words long.
 Raffenetti 1 integral format.
 Two-electron integral symmetry is turned on.
 Leave Link  301 at Thu Dec 16 11:32:18 2021, MaxMem=   536870912 cpu:               0.1 elap:               0.0
 (Enter /opt/gaussian/g16/sse4/g16/l302.exe)
 NPDir=0 NMtPBC=     1 NCelOv=     1 NCel=       1 NClECP=     1 NCelD=      1
         NCelK=      1 NCelE2=     1 NClLst=     1 CellRange=     0.0.
 One-electron integrals computed using PRISM.
 One-electron integral symmetry used in STVInt
 NBasis=    24 RedAO= T EigKep=  3.37D-02  NBF=    18     6
 NBsUse=    24 1.00D-06 EigRej= -1.00D+00 NBFU=    18     6
 Leave Link  302 at Thu Dec 16 11:32:18 2021, MaxMem=   536870912 cpu:               0.5 elap:               0.1
 (Enter /opt/gaussian/g16/sse4/g16/l303.exe)
 DipDrv:  MaxL=1.
 Leave Link  303 at Thu Dec 16 11:32:18 2021, MaxMem=   536870912 cpu:               0.1 elap:               0.0
 (Enter /opt/gaussian/g16/sse4/g16/l401.exe)
 Initial guess from the checkpoint file:  "HF_Water_gaus.chk"
 B after Tr=    -0.000000    0.000000    0.000000
         Rot=    1.000000    0.000000    0.000000    0.000000 Ang=   0.00 deg.
 Guess basis will be translated and rotated to current coordinates.
 JPrj=2 DoOrth=T DoCkMO=T.
 Initial guess orbital symmetries:
       Occupied  (A') (A') (A') (A') (A")
       Virtual   (A') (A') (A') (A') (A') (A") (A') (A') (A") (A")
                 (A') (A') (A') (A') (A") (A") (A') (A') (A')
 The electronic state of the initial guess is 1-A'.
 Leave Link  401 at Thu Dec 16 11:32:18 2021, MaxMem=   536870912 cpu:               0.3 elap:               0.1
 (Enter /opt/gaussian/g16/sse4/g16/l502.exe)
 Keep R1 ints in memory in symmetry-blocked form, NReq=878187.
 FoFCou: FMM=F IPFlag=           0 FMFlag=           0 FMFlg1=           0
         NFxFlg=           0 DoJE=F BraDBF=F KetDBF=F FulRan=T
         wScrn=  0.000000 ICntrl=       600 IOpCl=  0 I1Cent=           0 NGrid=           0
         NMat0=    1 NMatS0=    300 NMatT0=    0 NMatD0=    1 NMtDS0=    0 NMtDT0=    0
 Petite list used in FoFCou.
 Closed shell SCF:
 Using DIIS extrapolation, IDIIS=  1040.
 NGot=   536870912 LenX=   536843682 LenY=   536842616
 Requested convergence on RMS density matrix=1.00D-08 within 128 cycles.
 Requested convergence on MAX density matrix=1.00D-06.
 Requested convergence on             energy=1.00D-06.
 No special actions if energy rises.

 Cycle   1  Pass 1  IDiag  1:
 E= -76.0270532879229    
 DIIS: error= 1.71D-09 at cycle   1 NSaved=   1.
 NSaved= 1 IEnMin= 1 EnMin= -76.0270532879229     IErMin= 1 ErrMin= 1.71D-09
 ErrMax= 1.71D-09  0.00D+00 EMaxC= 1.00D-01 BMatC= 5.08D-17 BMatP= 5.08D-17
 IDIUse=1 WtCom= 1.00D+00 WtEn= 0.00D+00
 Coeff-Com:  0.100D+01
 Coeff:      0.100D+01
 Gap=     0.681 Goal=   None    Shift=    0.000
 RMSDP=2.97D-10 MaxDP=2.61D-09              OVMax= 3.36D-09

 SCF Done:  E(RHF) =  -76.0270532879     A.U. after    1 cycles
            NFock=  1  Conv=0.30D-09     -V/T= 1.9999
 KE= 7.603200825075D+01 PE=-1.993720015076D+02 EE= 3.801162701324D+01
 Leave Link  502 at Thu Dec 16 11:32:19 2021, MaxMem=   536870912 cpu:               0.6 elap:               0.1
 (Enter /opt/gaussian/g16/sse4/g16/l801.exe)
 Range of M.O.s used for correlation:     1    24
 NBasis=    24 NAE=     5 NBE=     5 NFC=     0 NFV=     0
 NROrb=     24 NOA=     5 NOB=     5 NVA=    19 NVB=    19
 Leave Link  801 at Thu Dec 16 11:32:19 2021, MaxMem=   536870912 cpu:               0.1 elap:               0.0
 (Enter /opt/gaussian/g16/sse4/g16/l1002.exe)
 Minotr:  Closed shell wavefunction.
          Direct CPHF calculation.
          Differentiating once with respect to electric field.
                with respect to dipole field.
          Electric field/nuclear overlap derivatives assumed to be zero.
          Using symmetry in CPHF.
          Requested convergence is 1.0D-08 RMS, and 1.0D-07 maximum.
          Secondary convergence is 1.0D-12 RMS, and 1.0D-12 maximum.
          NewPWx=F KeepS1=T KeepF1=T KeepIn=T MapXYZ=F SortEE=F KeepMc=T.
 Keep R1 ints in memory in symmetry-blocked form, NReq=878597.
 FoFCou: FMM=F IPFlag=           0 FMFlag=           0 FMFlg1=           0
         NFxFlg=           0 DoJE=F BraDBF=F KetDBF=F FulRan=T
         wScrn=  0.000000 ICntrl=       600 IOpCl=  0 I1Cent=           0 NGrid=           0
         NMat0=    1 NMatS0=    300 NMatT0=    0 NMatD0=    1 NMtDS0=    0 NMtDT0=    0
 Petite list used in FoFCou.
          MDV=     536870912 using IRadAn=       1.
          Solving linear equations simultaneously, MaxMat=       0.
          There are     3 degrees of freedom in the 1st order CPHF.  IDoFFX=0 NUNeed=     3.
      3 vectors produced by pass  0 Test12= 3.17D-15 3.33D-08 XBig12= 1.15D+00 6.83D-01.
 AX will form     3 AO Fock derivatives at one time.
      3 vectors produced by pass  1 Test12= 3.17D-15 3.33D-08 XBig12= 5.63D-02 1.21D-01.
      3 vectors produced by pass  2 Test12= 3.17D-15 3.33D-08 XBig12= 7.23D-03 3.79D-02.
      3 vectors produced by pass  3 Test12= 3.17D-15 3.33D-08 XBig12= 2.25D-04 7.05D-03.
      3 vectors produced by pass  4 Test12= 3.17D-15 3.33D-08 XBig12= 4.04D-06 8.17D-04.
      3 vectors produced by pass  5 Test12= 3.17D-15 3.33D-08 XBig12= 2.95D-08 7.40D-05.
      3 vectors produced by pass  6 Test12= 3.17D-15 3.33D-08 XBig12= 3.37D-10 9.09D-06.
      2 vectors produced by pass  7 Test12= 3.17D-15 3.33D-08 XBig12= 1.95D-12 5.98D-07.
      1 vectors produced by pass  8 Test12= 3.17D-15 3.33D-08 XBig12= 9.82D-15 4.57D-08.
 InvSVY:  IOpt=1 It=  1 EMax= 9.51D-17
 Solved reduced A of dimension    24 with     3 vectors.
 End of Minotr F.D. properties file   721 does not exist.
 End of Minotr F.D. properties file   722 does not exist.
 End of Minotr F.D. properties file   788 does not exist.
 Leave Link 1002 at Thu Dec 16 11:32:19 2021, MaxMem=   536870912 cpu:               0.4 elap:               0.1
 (Enter /opt/gaussian/g16/sse4/g16/l1101.exe)
 Using compressed storage, NAtomX=     3.
 Will process      4 centers per pass.
 Leave Link 1101 at Thu Dec 16 11:32:19 2021, MaxMem=   536870912 cpu:               0.4 elap:               0.1
 (Enter /opt/gaussian/g16/sse4/g16/l1102.exe)
 Symmetrizing basis deriv contribution to polar:
 IMax=3 JMax=2 DiffMx= 0.00D+00
 Leave Link 1102 at Thu Dec 16 11:32:19 2021, MaxMem=   536870912 cpu:               0.1 elap:               0.0
 (Enter /opt/gaussian/g16/sse4/g16/l1110.exe)
 Forming Gx(P) for the SCF density, NAtomX=     3.
 Integral derivatives from FoFJK, PRISM(SPDF).
 Do as many integral derivatives as possible in FoFJK.
 G2DrvN: MDV=     536870572.
 G2DrvN: will do     4 centers at a time, making    1 passes.
 PxScal for G2LodP:  IOpCl= 0 ISclPx=1 IMOff=     1 NMtTot=     4 NTT=     300 ScalPx= 1.00D+00
 Calling FoFCou, ICntrl=  3107 FMM=F I1Cent=   0 AccDes= 0.00D+00.
 FoFJK:  IHMeth= 1 ICntrl=    3107 DoSepK=F KAlg= 0 I1Cent=           0 FoldK=F
 IRaf=         0 NMat=       1 IRICut=       1 DoRegI=T DoRafI=F ISym2E= 1 IDoP0=0 IntGTp=1.
 FoFCou: FMM=F IPFlag=           0 FMFlag=      100000 FMFlg1=           0
         NFxFlg=           0 DoJE=F BraDBF=F KetDBF=F FulRan=T
         wScrn=  0.000000 ICntrl=      3107 IOpCl=  0 I1Cent=           0 NGrid=           0
         NMat0=    1 NMatS0=      1 NMatT0=    0 NMatD0=    4 NMtDS0=    3 NMtDT0=    0
 Petite list used in FoFCou.
 End of G2Drv F.D. properties file   721 does not exist.
 End of G2Drv F.D. properties file   722 does not exist.
 End of G2Drv F.D. properties file   788 does not exist.
 Leave Link 1110 at Thu Dec 16 11:32:20 2021, MaxMem=   536870912 cpu:               0.7 elap:               0.2
 (Enter /opt/gaussian/g16/sse4/g16/l1002.exe)
 Minotr:  Closed shell wavefunction.
          IDoAtm=111
          Direct CPHF calculation.
          Differentiating once with respect to electric field.
                with respect to dipole field.
          Differentiating once with respect to nuclear coordinates.
          Using symmetry in CPHF.
          Requested convergence is 1.0D-08 RMS, and 1.0D-07 maximum.
          Secondary convergence is 1.0D-12 RMS, and 1.0D-12 maximum.
          NewPWx=T KeepS1=F KeepF1=F KeepIn=T MapXYZ=F SortEE=F KeepMc=T.
 Keep R1 ints in memory in symmetry-blocked form, NReq=878666.
 FoFCou: FMM=F IPFlag=           0 FMFlag=           0 FMFlg1=           0
         NFxFlg=           0 DoJE=F BraDBF=F KetDBF=F FulRan=T
         wScrn=  0.000000 ICntrl=       600 IOpCl=  0 I1Cent=           0 NGrid=           0
         NMat0=    1 NMatS0=    300 NMatT0=    0 NMatD0=    1 NMtDS0=    0 NMtDT0=    0
 Petite list used in FoFCou.
          MDV=     536870912 using IRadAn=       1.
[...]
                       Q            Log10(Q)             Ln(Q)
 Total Bot       0.643755D-02         -2.191279         -5.045607
 Total V=0       0.248275D+09          8.394932         19.330046
 Vib (Bot)       0.259341D-10        -10.586129        -24.375462
 Vib (V=0)       0.100019D+01          0.000083          0.000191
 Electronic      0.100000D+01          0.000000          0.000000
 Translational   0.300431D+07          6.477745         14.915559
 Rotational      0.826237D+02          1.917104          4.414296
 
                                                              Water.xyz
                                                             IR Spectrum
 
     4  4                                                                      1                                                     
     2  1                                                                      7                                                     
     1  1                                                                      7                                                     
     4  4                                                                      5                                                     
 
     X  X                                                                      X                                                     
     X  X                                                                      X                                                     
     X  X                                                                      X                                                     
     X  X                                                                      X                                                     
     X  X                                                                      X                                                     
     X                                                                         X                                                     
     X                                                                         X                                                     
     X                                                                         X                                                     
     X                                                                         X                                                     
     X                                                                         X                                                     
     X                                                                         X                                                     
     X                                                                         X                                                     
     X                                                                         X                                                     
     X                                                                         X                                                     
     X                                                                         X                                                     
                                                                               X                                                     
                                                                               X                                                     
                                                                               X                                                     
                                                                               X                                                     
                                                                               X                                                     
 
 
                                                              Water.xyz
                                                            Raman Spectrum
 
     4  4                                                                      1                                                     
     2  1                                                                      7                                                     
     1  1                                                                      7                                                     
     4  4                                                                      5                                                     
 
     X  X                                                                      X                                                     
     X  X                                                                                                                            
     X  X                                                                                                                            
     X  X                                                                                                                            
     X  X                                                                                                                            
     X  X                                                                                                                            
     X  X                                                                                                                            
     X  X                                                                                                                            
     X  X                                                                                                                            
     X  X                                                                                                                            
        X                                                                                                                            
        X                                                                                                                            
        X                                                                                                                            
        X                                                                                                                            
        X                                                                                                                            
        X                                                                                                                            
        X                                                                                                                            
        X                                                                                                                            
        X                                                                                                                            
        X                                                                                                                            
 
 ***** Axes restored to original set *****
 -------------------------------------------------------------------
 Center     Atomic                   Forces (Hartrees/Bohr)
 Number     Number              X              Y              Z
 -------------------------------------------------------------------
      1        8          -0.000169925   -0.000110394    0.000213339
      2        1           0.000033245    0.000072016   -0.000139173
      3        1           0.000136680    0.000038378   -0.000074166
 -------------------------------------------------------------------
 Cartesian Forces:  Max     0.000213339 RMS     0.000123779
 Force constants in Cartesian coordinates: 
                1             2             3             4             5 
      1  0.703880D+00
      2 -0.537942D-01  0.130972D+00
      3  0.103958D+00 -0.253627D+00  0.489870D+00
      4 -0.606248D+00  0.110793D-02 -0.214106D-02  0.623530D+00
      5 -0.299567D-01 -0.117738D-01  0.230134D-01  0.312668D-02  0.118230D-01
      6  0.578919D-01  0.230134D-01 -0.443391D-01 -0.604239D-02 -0.229352D-01
      7 -0.976320D-01  0.526863D-01 -0.101817D+00 -0.172811D-01  0.268300D-01
      8  0.837509D-01 -0.119199D+00  0.230614D+00 -0.423460D-02 -0.492847D-04
      9 -0.161850D+00  0.230614D+00 -0.445531D+00  0.818345D-02 -0.781536D-04
                6             7             8             9 
      6  0.442777D-01
      7 -0.518495D-01  0.114913D+00
      8 -0.781522D-04 -0.795163D-01  0.119248D+00
      9  0.613075D-04  0.153667D+00 -0.230535D+00  0.445469D+00
 FormGI is forming the generalized inverse of G from B-inverse, IUseBI=4.
 Force constants in internal coordinates: 
                1             2             3 
      1  0.623113D+00
      2 -0.443593D-02  0.623113D+00
      3  0.301948D-01  0.301948D-01  0.180913D+00
 Leave Link  716 at Thu Dec 16 11:32:21 2021, MaxMem=   536870912 cpu:               0.1 elap:               0.0
 (Enter /opt/gaussian/g16/sse4/g16/l103.exe)

 GradGradGradGradGradGradGradGradGradGradGradGradGradGradGradGradGradGrad
 Berny optimization.
 Red2BG is reusing G-inverse.
 Internal  Forces:  Max     0.000277481 RMS     0.000163450
 Search for a local minimum.
 Step number   1 out of a maximum of    2
 All quantities printed in internal units (Hartrees-Bohrs-Radians)
 Second derivative matrix not updated -- analytic derivatives used.
 The second derivative matrix:
                          R1        R2        A1
           R1           0.62311
           R2          -0.00444   0.62311
           A1           0.03019   0.03019   0.18091
 ITU=  0
     Eigenvalues ---    0.17679   0.62280   0.62755
 Angle between quadratic step and forces=   4.23 degrees.
 Linear search not attempted -- first point.
 Iteration  1 RMS(Cart)=  0.00083628 RMS(Int)=  0.00000046
 Iteration  2 RMS(Cart)=  0.00000043 RMS(Int)=  0.00000000
 ITry= 1 IFail=0 DXMaxC= 8.46D-04 DCOld= 1.00D+10 DXMaxT= 3.00D-01 DXLimC= 3.00D+00 Rises=F
 ClnCor:  largest displacement from symmetrization is 9.30D-16 for atom     2.
 Variable       Old X    -DE/DX   Delta X   Delta X   Delta X     New X
                                 (Linear)    (Quad)   (Total)
    R1        1.78808   0.00004   0.00000   0.00014   0.00014   1.78822
    R2        1.78808   0.00004   0.00000   0.00014   0.00014   1.78822
    A1        1.82742  -0.00028   0.00000  -0.00158  -0.00158   1.82584
         Item               Value     Threshold  Converged?
 Maximum Force            0.000277     0.000450     YES
 RMS     Force            0.000163     0.000300     YES
 Maximum Displacement     0.000846     0.001800     YES
 RMS     Displacement     0.000837     0.001200     YES
 Predicted change in Energy=-2.249529D-07
 Optimization completed.
    -- Stationary point found.
                           ----------------------------
                           !   Optimized Parameters   !
                           ! (Angstroms and Degrees)  !
 --------------------------                            --------------------------
 ! Name  Definition              Value          Derivative Info.                !
 --------------------------------------------------------------------------------
 ! R1    R(1,2)                  0.9462         -DE/DX =    0.0                 !
 ! R2    R(1,3)                  0.9462         -DE/DX =    0.0                 !
 ! A1    A(2,1,3)              104.7036         -DE/DX =   -0.0003              !
 --------------------------------------------------------------------------------
 GradGradGradGradGradGradGradGradGradGradGradGradGradGradGradGradGradGrad

 Leave Link  103 at Thu Dec 16 11:32:21 2021, MaxMem=   536870912 cpu:               0.0 elap:               0.0
 (Enter /opt/gaussian/g16/sse4/g16/l9999.exe)

 ----------------------------------------------------------------------

 Electric dipole moment (input orientation):
 (Debye = 10**-18 statcoulomb cm , SI units = C m)
                  (au)            (Debye)         (10**-30 SI)
   Tot        0.803686D+00      0.204277D+01      0.681393D+01
   x          0.464007D+00      0.117939D+01      0.393402D+01
   y          0.301577D+00      0.766532D+00      0.255688D+01
   z         -0.582803D+00     -0.148134D+01     -0.494121D+01

 Dipole polarizability, Alpha (input orientation).
 (esu units = cm**3 , SI units = C**2 m**2 J**-1)
 Alpha(0;0):
               (au)            (10**-24 esu)      (10**-40 SI)
   iso        0.490400D+01      0.726697D+00      0.808560D+00
   aniso      0.316230D+01      0.468604D+00      0.521393D+00
   xx         0.612050D+01      0.906965D+00      0.100913D+01
   yx        -0.372621D+00     -0.552168D-01     -0.614370D-01
   yy         0.357294D+01      0.529456D+00      0.589099D+00
   zx         0.720098D+00      0.106707D+00      0.118728D+00
   zy        -0.102159D+01     -0.151383D+00     -0.168437D+00
   zz         0.501855D+01      0.743672D+00      0.827447D+00

 First dipole hyperpolarizability, Beta (input orientation).
 ||, _|_  parallel and perpendicular components, (z) with respect to z axis,
 vector components x,y,z.  Values do not include the 1/n! factor of 1/2.
 (esu units = statvolt**-1 cm**4 , SI units = C**3 m**3 J**-2)
 Beta(0;0,0):
               (au)            (10**-30 esu)      (10**-50 SI)
   || (z)    -0.125128D+02     -0.108101D+00     -0.401205D-01
   _|_(z)    -0.417093D+01     -0.360336D-01     -0.133735D-01
   x          0.498112D+02      0.430330D+00      0.159713D+00
   y          0.323743D+02      0.279689D+00      0.103804D+00
   z         -0.625639D+02     -0.540504D+00     -0.200603D+00
   ||         0.172551D+02      0.149071D+00      0.553262D-01
   xxx        0.206624D+02      0.178507D+00      0.662513D-01
   xxy        0.127980D+01      0.110565D-01      0.410350D-02
   yxy       -0.776010D-01     -0.670412D-03     -0.248817D-03
   yyy        0.389970D+01      0.336904D-01      0.125038D-01
   xxz       -0.247323D+01     -0.213668D-01     -0.793009D-02
   yxz        0.275855D+01      0.238317D-01      0.884491D-02
   yyz       -0.414540D+01     -0.358130D-01     -0.132916D-01
   zxz       -0.398111D+01     -0.343937D-01     -0.127649D-01
   zyz        0.561194D+01      0.484827D-01      0.179939D-01
   zzz       -0.142360D+02     -0.122988D+00     -0.456458D-01

 ----------------------------------------------------------------------

 Dipole orientation:
     8          1.42233657          0.32073193          0.93320085
     1          2.82124989          0.53848023          2.02538083
     1          0.02342320          0.10298361          2.02538097

 Electric dipole moment (dipole orientation):
 (Debye = 10**-18 statcoulomb cm , SI units = C m)
                  (au)            (Debye)         (10**-30 SI)
   Tot        0.803686D+00      0.204277D+01      0.681393D+01
   x          0.000000D+00      0.000000D+00      0.000000D+00
   y          0.000000D+00      0.000000D+00      0.000000D+00
   z          0.803686D+00      0.204277D+01      0.681393D+01

 Dipole polarizability, Alpha (dipole orientation).
 (esu units = cm**3 , SI units = C**2 m**2 J**-1)
 Alpha(0;0):
               (au)            (10**-24 esu)      (10**-40 SI)
   iso        0.490400D+01      0.726697D+00      0.808560D+00
   aniso      0.316230D+01      0.468604D+00      0.521393D+00
   xx         0.660749D+01      0.979128D+00      0.108943D+01
   yx         0.554627D+00      0.821872D-01      0.914456D-01
   yy         0.313064D+01      0.463914D+00      0.516174D+00
   zx         0.000000D+00      0.000000D+00      0.000000D+00
   zy         0.000000D+00      0.000000D+00      0.000000D+00
   zz         0.497386D+01      0.737050D+00      0.820079D+00

 First dipole hyperpolarizability, Beta (dipole orientation).
 ||, _|_  parallel and perpendicular components, (z) with respect to z axis,
 vector components x,y,z.  Values do not include the 1/n! factor of 1/2.
 (esu units = statvolt**-1 cm**4 , SI units = C**3 m**3 J**-2)
 Beta(0;0,0):
               (au)            (10**-30 esu)      (10**-50 SI)
   || (z)     0.172551D+02      0.149071D+00      0.553262D-01
   _|_(z)     0.575171D+01      0.496903D-01      0.184421D-01
   x          0.000000D+00      0.000000D+00      0.000000D+00
   y          0.000000D+00      0.000000D+00      0.000000D+00
   z          0.862757D+02      0.745355D+00      0.276631D+00
   ||         0.172551D+02      0.149071D+00      0.553262D-01
   xxx        0.000000D+00      0.000000D+00      0.000000D+00
   xxy        0.000000D+00      0.000000D+00      0.000000D+00
   yxy        0.000000D+00      0.000000D+00      0.000000D+00
   yyy        0.000000D+00      0.000000D+00      0.000000D+00
   xxz        0.158613D+02      0.137029D+00      0.508570D-01
   yxz        0.210497D+01      0.181853D-01      0.674931D-02
   yyz        0.266564D+01      0.230290D-01      0.854700D-02
   zxz        0.000000D+00      0.000000D+00      0.000000D+00
   zyz        0.000000D+00      0.000000D+00      0.000000D+00
   zzz        0.102316D+02      0.883934D-01      0.328063D-01

 ----------------------------------------------------------------------
 1\1\GINC-NODE702\Freq\RHF\CC-pVDZ\H2O1\THEOB\16-Dec-2021\0\\#P Geom=Al
 lCheck Guess=TCheck SCRF=Check GenChk RHF/CC-pVDZ Freq\\Water.xyz\\0,1
 \O,0.9136647465,-0.0650858819,0.0127585274\H,1.8590570202,-0.046998158
 3,-0.0221963858\H,0.6356382333,0.3505740402,-0.7905121416\\Version=ES6
 4L-G16RevA.03\State=1-A'\HF=-76.0270533\RMSD=2.971e-10\RMSF=1.238e-04\
 ZeroPoint=0.0230151\Thermal=0.0258492\Dipole=0.4640074,0.3015769,-0.58
 28032\DipoleDeriv=-0.4923833,0.0211007,-0.0407774,0.0211006,-0.6775741
 ,-0.1126285,-0.0407774,-0.1126285,-0.5181981,0.1907708,-0.0091658,0.01
 77131,-0.029945,0.3504925,0.0336933,0.0578694,0.0336933,0.3028145,0.30
 16125,-0.0119349,0.0230643,0.0088444,0.3270816,0.0789352,-0.017092,0.0
 789352,0.2153836\Polar=6.1205001,-0.3726213,3.5729433,0.7200977,-1.021
 5862,5.0185487\PolarDeriv=-6.3537403,-0.5673677,0.1284442,1.0964491,-0
 .1597603,0.3545145,-0.8088503,-0.6337533,-1.6637214,-0.7464267,1.99152
 67,-1.3430838,1.5631188,-0.7464268,0.6528922,0.422485,-2.0357728,5.157
 816,7.2009977,-0.1231378,-0.0038972,0.237966,-0.180719,0.251831,0.3247
 669,1.4787229,0.0133671,0.1616519,-0.0281041,0.1029365,-0.6276184,0.16
 16519,-0.066486,1.2499758,0.0830755,-0.1582731,-0.8472575,0.6905055,-0
 .1245469,-1.334415,0.3404793,-0.6063455,0.4840834,-0.8449696,1.6503543
 ,0.5847748,-1.9634225,1.2401473,-0.9355004,0.5847748,-0.5864062,-1.672
 4608,1.9526973,-4.9995429\HyperPolar=20.662449,1.2797981,-0.077601,3.8
 996989,-2.4732349,2.7585496,-4.1453974,-3.9811131,5.611935,-14.2360156
 \Quadrupole=0.7116071,-0.7218934,0.0102863,-0.2817961,0.5445762,-0.517
 4197\PG=CS [SG(H2O1)]\NImag=0\\0.70388042,-0.05379418,0.13097227,0.103
 95824,-0.25362702,0.48986962,-0.60624844,0.00110793,-0.00214106,0.6235
 2956,-0.02995668,-0.01177376,0.02301337,0.00312668,0.01182305,0.057891
 88,0.02301337,-0.04433905,-0.00604239,-0.02293522,0.04427774,-0.097631
 99,0.05268625,-0.10181718,-0.01728112,0.02683000,-0.05184949,0.1149131
 1,0.08375086,-0.11919851,0.23061365,-0.00423460,-0.00004928,-0.0000781
 5,-0.07951626,0.11924779,-0.16185012,0.23061365,-0.44553057,0.00818345
 ,-0.00007815,0.00006131,0.15366667,-0.23053550,0.44546926\\0.00016992,
 0.00011039,-0.00021334,-0.00003324,-0.00007202,0.00013917,-0.00013668,
 -0.00003838,0.00007417\\\@


 REALITY IS FOR PEOPLE WHO CAN'T FACE SCIENCE FICTION.
 Job cpu time:       0 days  0 hours  0 minutes  8.0 seconds.
 Elapsed time:       0 days  0 hours  0 minutes  2.1 seconds.
 File lengths (MBytes):  RWF=      6 Int=      0 D2E=      0 Chk=      2 Scr=      1
 Normal termination of Gaussian 16 at Thu Dec 16 11:32:22 2021.
