 Entering Gaussian System, Link 0=/software/kemi/g16/avx2/g16/g16
 Initial command:
 /software/kemi/g16/avx2/g16/l1.exe "/scratch/20268695/Gau-14101.inp" -scrdir="/scratch/20268695/"
 Entering Link 1 = /software/kemi/g16/avx2/g16/l1.exe PID=     14102.
  
 Copyright (c) 1988,1990,1992,1993,1995,1998,2003,2009,2016,
            Gaussian, Inc.  All Rights Reserved.
  
 This is part of the Gaussian(R) 16 program.  It is based on
 the Gaussian(R) 09 system (copyright 2009, Gaussian, Inc.),
 the Gaussian(R) 03 system (copyright 2003, Gaussian, Inc.),
 the Gaussian(R) 98 system (copyright 1998, Gaussian, Inc.),
 the Gaussian(R) 94 system (copyright 1995, Gaussian, Inc.),
 the Gaussian 92(TM) system (copyright 1992, Gaussian, Inc.),
 the Gaussian 90(TM) system (copyright 1990, Gaussian, Inc.),
 the Gaussian 88(TM) system (copyright 1988, Gaussian, Inc.),
 the Gaussian 86(TM) system (copyright 1986, Carnegie Mellon
 University), and the Gaussian 82(TM) system (copyright 1983,
 Carnegie Mellon University). Gaussian is a federally registered
 trademark of Gaussian, Inc.
  
 This software contains proprietary and confidential information,
 including trade secrets, belonging to Gaussian, Inc.
  
 This software is provided under written license and may be
 used, copied, transmitted, or stored only in accord with that
 written license.
  
 The following legend is applicable only to US Government
 contracts under FAR:
  
                    RESTRICTED RIGHTS LEGEND
  
 Use, reproduction and disclosure by the US Government is
 subject to restrictions as set forth in subparagraphs (a)
 and (c) of the Commercial Computer Software - Restricted
 Rights clause in FAR 52.227-19.
  
 Gaussian, Inc.
 340 Quinnipiac St., Bldg. 40, Wallingford CT 06492
  
  
 ---------------------------------------------------------------
 Warning -- This program may not be used in any manner that
 competes with the business of Gaussian, Inc. or will provide
 assistance to any competitor of Gaussian, Inc.  The licensee
 of this program is prohibited from giving any competitor of
 Gaussian, Inc. access to this program.  By using this program,
 the user acknowledges that Gaussian, Inc. is engaged in the
 business of creating and licensing software in the field of
 computational chemistry and represents and warrants to the
 licensee that it is not a competitor of Gaussian, Inc. and that
 it will not use this program in any manner prohibited above.
 ---------------------------------------------------------------
  

 Cite this work as:
 Gaussian 16, Revision A.03,
 M. J. Frisch, G. W. Trucks, H. B. Schlegel, G. E. Scuseria, 
 M. A. Robb, J. R. Cheeseman, G. Scalmani, V. Barone, 
 G. A. Petersson, H. Nakatsuji, X. Li, M. Caricato, A. V. Marenich, 
 J. Bloino, B. G. Janesko, R. Gomperts, B. Mennucci, H. P. Hratchian, 
 J. V. Ortiz, A. F. Izmaylov, J. L. Sonnenberg, D. Williams-Young, 
 F. Ding, F. Lipparini, F. Egidi, J. Goings, B. Peng, A. Petrone, 
 T. Henderson, D. Ranasinghe, V. G. Zakrzewski, J. Gao, N. Rega, 
 G. Zheng, W. Liang, M. Hada, M. Ehara, K. Toyota, R. Fukuda, 
 J. Hasegawa, M. Ishida, T. Nakajima, Y. Honda, O. Kitao, H. Nakai, 
 T. Vreven, K. Throssell, J. A. Montgomery, Jr., J. E. Peralta, 
 F. Ogliaro, M. J. Bearpark, J. J. Heyd, E. N. Brothers, K. N. Kudin, 
 V. N. Staroverov, T. A. Keith, R. Kobayashi, J. Normand, 
 K. Raghavachari, A. P. Rendell, J. C. Burant, S. S. Iyengar, 
 J. Tomasi, M. Cossi, J. M. Millam, M. Klene, C. Adamo, R. Cammi, 
 J. W. Ochterski, R. L. Martin, K. Morokuma, O. Farkas, 
 J. B. Foresman, and D. J. Fox, Gaussian, Inc., Wallingford CT, 2016.
 
 ******************************************
 Gaussian 16:  ES64L-G16RevA.03 25-Dec-2016
                12-Feb-2021 
 ******************************************
 %chk=m062x_parent-DHA_an.chk
 %nprocshared=4
 Will use up to    4 processors via shared memory.
 %mem=4GB
 ----------------------------------------------------------------------
 # opt freq 6-311+g(d) scrf=(iefpcm,solvent=acetonitrile) geom=connecti
 vity m062x
 ----------------------------------------------------------------------
 1/18=20,19=15,26=3,38=1,57=2/1,3;
 2/9=110,12=2,17=6,18=5,40=1/2;
 3/5=4,6=6,7=11,11=2,25=1,30=1,70=2201,71=1,72=2,74=-55/1,2,3;
 4//1;
 5/5=2,38=5,53=2/2;
 6/7=2,8=2,9=2,10=2,28=1/1;
 7//1,2,3,16;
 1/18=20,19=15,26=3/3(2);
 2/9=110/2;
 99//99;
 2/9=110/2;
 3/5=4,6=6,7=11,11=2,25=1,30=1,70=2205,71=1,72=2,74=-55/1,2,3;
 4/5=5,16=3,69=1/1;
 5/5=2,38=5,53=2/2;
 7//1,2,3,16;
 1/18=20,19=15,26=3/3(-5);
 2/9=110/2;
 6/7=2,8=2,9=2,10=2,19=2,28=1/1;
 99/9=1/99;
 -------------------
 DHA in acetonitrile
 -------------------
 Symbolic Z-matrix:
 Charge =  0 Multiplicity = 1
 C                    -4.57762  -0.36828  -0.22408 
 C                    -4.102    -1.36176   0.56111 
 C                    -2.73662  -1.82458   0.60801 
 C                    -3.81108   0.39676  -1.18586 
 C                    -1.66005  -1.05628   0.36658 
 C                    -2.51644   0.72121  -1.08618 
 C                    -1.7417    0.4382    0.17099 
 H                    -5.65173  -0.20763  -0.22922 
 H                    -4.82531  -1.93814   1.13062 
 H                    -2.58026  -2.87241   0.8496 
 H                    -2.0244    1.22255  -1.91189 
 C                    -0.27401  -1.45885   0.30496 
 H                     0.03645  -2.49389   0.37414 
 C                     0.57126  -0.42769   0.17049 
 C                    -0.22794   0.89567   0.19001 
 H                    -2.26331   0.89762   1.0152 
 C                     0.13393   1.75761  -0.94399 
 C                     0.02337   1.63602   1.43868 
 N                     0.40403   2.41371  -1.84392 
 N                     0.18795   2.19119   2.42802 
 H                    -4.34539   0.71675  -2.07611 
 C                     2.03022  -0.48408   0.01905 
 C                     2.63091  -1.65003  -0.4708 
 C                     2.85416   0.59519   0.34756 
 C                     4.00513  -1.74103  -0.60369 
 H                     2.01259  -2.48631  -0.7754 
 C                     4.23144   0.503     0.21164 
 H                     2.43361   1.51639   0.73039 
 C                     4.81305  -0.66385  -0.26022 
 H                     4.44766  -2.6523   -0.98997 
 H                     4.85075   1.35188   0.47761 
 H                     5.88944  -0.73216  -0.36922 
 

 GradGradGradGradGradGradGradGradGradGradGradGradGradGradGradGradGradGrad
 Berny optimization.
 Initialization pass.
                           ----------------------------
                           !    Initial Parameters    !
                           ! (Angstroms and Degrees)  !
 --------------------------                            --------------------------
 ! Name  Definition              Value          Derivative Info.                !
 --------------------------------------------------------------------------------
 ! R1    R(1,2)                  1.3527         estimate D2E/DX2                !
 ! R2    R(1,4)                  1.4484         estimate D2E/DX2                !
 ! R3    R(1,8)                  1.0861         estimate D2E/DX2                !
 ! R4    R(2,3)                  1.4424         estimate D2E/DX2                !
 ! R5    R(2,9)                  1.0861         estimate D2E/DX2                !
 ! R6    R(3,5)                  1.3445         estimate D2E/DX2                !
 ! R7    R(3,10)                 1.0866         estimate D2E/DX2                !
 ! R8    R(4,6)                  1.3384         estimate D2E/DX2                !
 ! R9    R(4,21)                 1.0865         estimate D2E/DX2                !
 ! R10   R(5,7)                  1.5094         estimate D2E/DX2                !
 ! R11   R(5,12)                 1.4446         estimate D2E/DX2                !
 ! R12   R(6,7)                  1.5036         estimate D2E/DX2                !
 ! R13   R(6,11)                 1.0841         estimate D2E/DX2                !
 ! R14   R(7,15)                 1.5815         estimate D2E/DX2                !
 ! R15   R(7,16)                 1.0935         estimate D2E/DX2                !
 ! R16   R(12,13)                1.0828         estimate D2E/DX2                !
 ! R17   R(12,14)                1.3401         estimate D2E/DX2                !
 ! R18   R(14,15)                1.5461         estimate D2E/DX2                !
 ! R19   R(14,22)                1.4679         estimate D2E/DX2                !
 ! R20   R(15,17)                1.4696         estimate D2E/DX2                !
 ! R21   R(15,18)                1.4732         estimate D2E/DX2                !
 ! R22   R(17,19)                1.146          estimate D2E/DX2                !
 ! R23   R(18,20)                1.1463         estimate D2E/DX2                !
 ! R24   R(22,23)                1.4001         estimate D2E/DX2                !
 ! R25   R(22,24)                1.397          estimate D2E/DX2                !
 ! R26   R(23,25)                1.3836         estimate D2E/DX2                !
 ! R27   R(23,26)                1.0837         estimate D2E/DX2                !
 ! R28   R(24,27)                1.387          estimate D2E/DX2                !
 ! R29   R(24,28)                1.0826         estimate D2E/DX2                !
 ! R30   R(25,29)                1.3896         estimate D2E/DX2                !
 ! R31   R(25,30)                1.0842         estimate D2E/DX2                !
 ! R32   R(27,29)                1.3865         estimate D2E/DX2                !
 ! R33   R(27,31)                1.0839         estimate D2E/DX2                !
 ! R34   R(29,32)                1.084          estimate D2E/DX2                !
 ! A1    A(2,1,4)              125.9649         estimate D2E/DX2                !
 ! A2    A(2,1,8)              117.331          estimate D2E/DX2                !
 ! A3    A(4,1,8)              116.2401         estimate D2E/DX2                !
 ! A4    A(1,2,3)              125.9695         estimate D2E/DX2                !
 ! A5    A(1,2,9)              117.384          estimate D2E/DX2                !
 ! A6    A(3,2,9)              116.2982         estimate D2E/DX2                !
 ! A7    A(2,3,5)              124.6642         estimate D2E/DX2                !
 ! A8    A(2,3,10)             116.9257         estimate D2E/DX2                !
 ! A9    A(5,3,10)             118.4084         estimate D2E/DX2                !
 ! A10   A(1,4,6)              126.1942         estimate D2E/DX2                !
 ! A11   A(1,4,21)             116.0647         estimate D2E/DX2                !
 ! A12   A(6,4,21)             117.7321         estimate D2E/DX2                !
 ! A13   A(3,5,7)              123.0757         estimate D2E/DX2                !
 ! A14   A(3,5,12)             128.0741         estimate D2E/DX2                !
 ! A15   A(7,5,12)             108.8008         estimate D2E/DX2                !
 ! A16   A(4,6,7)              121.001          estimate D2E/DX2                !
 ! A17   A(4,6,11)             119.6316         estimate D2E/DX2                !
 ! A18   A(7,6,11)             119.3417         estimate D2E/DX2                !
 ! A19   A(5,7,6)              108.8183         estimate D2E/DX2                !
 ! A20   A(5,7,15)             103.4775         estimate D2E/DX2                !
 ! A21   A(5,7,16)             109.9821         estimate D2E/DX2                !
 ! A22   A(6,7,15)             116.6666         estimate D2E/DX2                !
 ! A23   A(6,7,16)             108.7008         estimate D2E/DX2                !
 ! A24   A(15,7,16)            109.0116         estimate D2E/DX2                !
 ! A25   A(5,12,13)            122.5975         estimate D2E/DX2                !
 ! A26   A(5,12,14)            113.2677         estimate D2E/DX2                !
 ! A27   A(13,12,14)           124.1307         estimate D2E/DX2                !
 ! A28   A(12,14,15)           109.3478         estimate D2E/DX2                !
 ! A29   A(12,14,22)           127.4243         estimate D2E/DX2                !
 ! A30   A(15,14,22)           123.2274         estimate D2E/DX2                !
 ! A31   A(7,15,14)            104.3022         estimate D2E/DX2                !
 ! A32   A(7,15,17)            113.3321         estimate D2E/DX2                !
 ! A33   A(7,15,18)            108.5925         estimate D2E/DX2                !
 ! A34   A(14,15,17)           111.4065         estimate D2E/DX2                !
 ! A35   A(14,15,18)           110.6499         estimate D2E/DX2                !
 ! A36   A(17,15,18)           108.4975         estimate D2E/DX2                !
 ! A37   A(14,22,23)           119.6383         estimate D2E/DX2                !
 ! A38   A(14,22,24)           122.1589         estimate D2E/DX2                !
 ! A39   A(23,22,24)           118.2028         estimate D2E/DX2                !
 ! A40   A(22,23,25)           120.9639         estimate D2E/DX2                !
 ! A41   A(22,23,26)           119.7474         estimate D2E/DX2                !
 ! A42   A(25,23,26)           119.2699         estimate D2E/DX2                !
 ! A43   A(22,24,27)           120.7476         estimate D2E/DX2                !
 ! A44   A(22,24,28)           120.7586         estimate D2E/DX2                !
 ! A45   A(27,24,28)           118.4853         estimate D2E/DX2                !
 ! A46   A(23,25,29)           120.1806         estimate D2E/DX2                !
 ! A47   A(23,25,30)           119.6627         estimate D2E/DX2                !
 ! A48   A(29,25,30)           120.1515         estimate D2E/DX2                !
 ! A49   A(24,27,29)           120.3844         estimate D2E/DX2                !
 ! A50   A(24,27,31)           119.4225         estimate D2E/DX2                !
 ! A51   A(29,27,31)           120.193          estimate D2E/DX2                !
 ! A52   A(25,29,27)           119.5108         estimate D2E/DX2                !
 ! A53   A(25,29,32)           120.2377         estimate D2E/DX2                !
 ! A54   A(27,29,32)           120.249          estimate D2E/DX2                !
 ! A55   L(15,17,19,4,-1)      179.0567         estimate D2E/DX2                !
 ! A56   L(15,18,20,24,-1)     181.399          estimate D2E/DX2                !
 ! A57   L(15,17,19,4,-2)      180.9198         estimate D2E/DX2                !
 ! A58   L(15,18,20,24,-2)     181.6025         estimate D2E/DX2                !
 ! D1    D(4,1,2,3)              1.4531         estimate D2E/DX2                !
 ! D2    D(4,1,2,9)           -171.4917         estimate D2E/DX2                !
 ! D3    D(8,1,2,3)            173.3106         estimate D2E/DX2                !
 ! D4    D(8,1,2,9)              0.3658         estimate D2E/DX2                !
 ! D5    D(2,1,4,6)            -32.2994         estimate D2E/DX2                !
 ! D6    D(2,1,4,21)           146.5761         estimate D2E/DX2                !
 ! D7    D(8,1,4,6)            155.7647         estimate D2E/DX2                !
 ! D8    D(8,1,4,21)           -25.3599         estimate D2E/DX2                !
 ! D9    D(1,2,3,5)             30.0053         estimate D2E/DX2                !
 ! D10   D(1,2,3,10)          -149.5246         estimate D2E/DX2                !
 ! D11   D(9,2,3,5)           -156.9823         estimate D2E/DX2                !
 ! D12   D(9,2,3,10)            23.4879         estimate D2E/DX2                !
 ! D13   D(2,3,5,7)              7.3841         estimate D2E/DX2                !
 ! D14   D(2,3,5,12)          -175.4647         estimate D2E/DX2                !
 ! D15   D(10,3,5,7)          -173.0925         estimate D2E/DX2                !
 ! D16   D(10,3,5,12)            4.0587         estimate D2E/DX2                !
 ! D17   D(1,4,6,7)             -7.3417         estimate D2E/DX2                !
 ! D18   D(1,4,6,11)           174.5128         estimate D2E/DX2                !
 ! D19   D(21,4,6,7)           173.7995         estimate D2E/DX2                !
 ! D20   D(21,4,6,11)           -4.3459         estimate D2E/DX2                !
 ! D21   D(3,5,7,6)            -65.3404         estimate D2E/DX2                !
 ! D22   D(3,5,7,15)           169.9621         estimate D2E/DX2                !
 ! D23   D(3,5,7,16)            53.6291         estimate D2E/DX2                !
 ! D24   D(12,5,7,6)           117.0282         estimate D2E/DX2                !
 ! D25   D(12,5,7,15)           -7.6692         estimate D2E/DX2                !
 ! D26   D(12,5,7,16)         -124.0022         estimate D2E/DX2                !
 ! D27   D(3,5,12,13)            5.3142         estimate D2E/DX2                !
 ! D28   D(3,5,12,14)         -173.982          estimate D2E/DX2                !
 ! D29   D(7,5,12,13)         -177.2072         estimate D2E/DX2                !
 ! D30   D(7,5,12,14)            3.4965         estimate D2E/DX2                !
 ! D31   D(4,6,7,5)             64.8992         estimate D2E/DX2                !
 ! D32   D(4,6,7,15)          -178.5699         estimate D2E/DX2                !
 ! D33   D(4,6,7,16)           -54.8695         estimate D2E/DX2                !
 ! D34   D(11,6,7,5)          -116.95           estimate D2E/DX2                !
 ! D35   D(11,6,7,15)           -0.4191         estimate D2E/DX2                !
 ! D36   D(11,6,7,16)          123.2812         estimate D2E/DX2                !
 ! D37   D(5,7,15,14)            8.7467         estimate D2E/DX2                !
 ! D38   D(5,7,15,17)          130.0899         estimate D2E/DX2                !
 ! D39   D(5,7,15,18)         -109.2703         estimate D2E/DX2                !
 ! D40   D(6,7,15,14)         -110.6956         estimate D2E/DX2                !
 ! D41   D(6,7,15,17)           10.6475         estimate D2E/DX2                !
 ! D42   D(6,7,15,18)          131.2873         estimate D2E/DX2                !
 ! D43   D(16,7,15,14)         125.7637         estimate D2E/DX2                !
 ! D44   D(16,7,15,17)        -112.8932         estimate D2E/DX2                !
 ! D45   D(16,7,15,18)           7.7466         estimate D2E/DX2                !
 ! D46   D(5,12,14,15)           2.6119         estimate D2E/DX2                !
 ! D47   D(5,12,14,22)        -177.1283         estimate D2E/DX2                !
 ! D48   D(13,12,14,15)       -176.6718         estimate D2E/DX2                !
 ! D49   D(13,12,14,22)          3.588          estimate D2E/DX2                !
 ! D50   D(12,14,15,7)          -7.2567         estimate D2E/DX2                !
 ! D51   D(12,14,15,17)       -129.8692         estimate D2E/DX2                !
 ! D52   D(12,14,15,18)        109.3396         estimate D2E/DX2                !
 ! D53   D(22,14,15,7)         172.4967         estimate D2E/DX2                !
 ! D54   D(22,14,15,17)         49.8841         estimate D2E/DX2                !
 ! D55   D(22,14,15,18)        -70.907          estimate D2E/DX2                !
 ! D56   D(12,14,22,23)         22.9555         estimate D2E/DX2                !
 ! D57   D(12,14,22,24)       -157.1184         estimate D2E/DX2                !
 ! D58   D(15,14,22,23)       -156.7515         estimate D2E/DX2                !
 ! D59   D(15,14,22,24)         23.1746         estimate D2E/DX2                !
 ! D60   D(14,22,23,25)       -178.9215         estimate D2E/DX2                !
 ! D61   D(14,22,23,26)          2.6715         estimate D2E/DX2                !
 ! D62   D(24,22,23,25)          1.1495         estimate D2E/DX2                !
 ! D63   D(24,22,23,26)       -177.2575         estimate D2E/DX2                !
 ! D64   D(14,22,24,27)        179.032          estimate D2E/DX2                !
 ! D65   D(14,22,24,28)          0.1129         estimate D2E/DX2                !
 ! D66   D(23,22,24,27)         -1.0409         estimate D2E/DX2                !
 ! D67   D(23,22,24,28)       -179.96           estimate D2E/DX2                !
 ! D68   D(22,23,25,29)         -0.5281         estimate D2E/DX2                !
 ! D69   D(22,23,25,30)       -179.6971         estimate D2E/DX2                !
 ! D70   D(26,23,25,29)        177.8863         estimate D2E/DX2                !
 ! D71   D(26,23,25,30)         -1.2827         estimate D2E/DX2                !
 ! D72   D(22,24,27,29)          0.3146         estimate D2E/DX2                !
 ! D73   D(22,24,27,31)       -179.6904         estimate D2E/DX2                !
 ! D74   D(28,24,27,29)        179.2578         estimate D2E/DX2                !
 ! D75   D(28,24,27,31)         -0.7471         estimate D2E/DX2                !
 ! D76   D(23,25,29,27)         -0.2269         estimate D2E/DX2                !
 ! D77   D(23,25,29,32)       -179.6558         estimate D2E/DX2                !
 ! D78   D(30,25,29,27)        178.938          estimate D2E/DX2                !
 ! D79   D(30,25,29,32)         -0.491          estimate D2E/DX2                !
 ! D80   D(24,27,29,25)          0.333          estimate D2E/DX2                !
 ! D81   D(24,27,29,32)        179.7619         estimate D2E/DX2                !
 ! D82   D(31,27,29,25)       -179.662          estimate D2E/DX2                !
 ! D83   D(31,27,29,32)         -0.2331         estimate D2E/DX2                !
 --------------------------------------------------------------------------------
 Trust Radius=3.00D-01 FncErr=1.00D-07 GrdErr=1.00D-06 EigMax=2.50D+02 EigMin=1.00D-04
 Number of steps in this run=    185 maximum allowed number of steps=    192.
 GradGradGradGradGradGradGradGradGradGradGradGradGradGradGradGradGradGrad

                          Input orientation:                          
 ---------------------------------------------------------------------
 Center     Atomic      Atomic             Coordinates (Angstroms)
 Number     Number       Type             X           Y           Z
 ---------------------------------------------------------------------
      1          6           0       -4.577624   -0.368281   -0.224080
      2          6           0       -4.102000   -1.361764    0.561114
      3          6           0       -2.736622   -1.824583    0.608013
      4          6           0       -3.811075    0.396757   -1.185856
      5          6           0       -1.660051   -1.056282    0.366582
      6          6           0       -2.516441    0.721207   -1.086181
      7          6           0       -1.741704    0.438202    0.170993
      8          1           0       -5.651728   -0.207630   -0.229221
      9          1           0       -4.825306   -1.938140    1.130617
     10          1           0       -2.580263   -2.872413    0.849597
     11          1           0       -2.024403    1.222549   -1.911886
     12          6           0       -0.274013   -1.458852    0.304964
     13          1           0        0.036445   -2.493888    0.374138
     14          6           0        0.571263   -0.427688    0.170488
     15          6           0       -0.227941    0.895673    0.190009
     16          1           0       -2.263315    0.897616    1.015197
     17          6           0        0.133929    1.757612   -0.943994
     18          6           0        0.023373    1.636021    1.438681
     19          7           0        0.404026    2.413710   -1.843920
     20          7           0        0.187952    2.191189    2.428020
     21          1           0       -4.345395    0.716751   -2.076108
     22          6           0        2.030219   -0.484080    0.019047
     23          6           0        2.630910   -1.650028   -0.470803
     24          6           0        2.854164    0.595186    0.347556
     25          6           0        4.005130   -1.741025   -0.603694
     26          1           0        2.012594   -2.486305   -0.775403
     27          6           0        4.231444    0.502999    0.211644
     28          1           0        2.433612    1.516394    0.730387
     29          6           0        4.813050   -0.663848   -0.260219
     30          1           0        4.447663   -2.652298   -0.989971
     31          1           0        4.850748    1.351875    0.477607
     32          1           0        5.889438   -0.732162   -0.369222
 ---------------------------------------------------------------------
                    Distance matrix (angstroms):
                    1          2          3          4          5
     1  C    0.000000
     2  C    1.352685   0.000000
     3  C    2.490478   1.442449   0.000000
     4  C    1.448411   2.495784   3.050699   0.000000
     5  C    3.055235   2.468659   1.344463   3.024614   0.000000
     6  C    2.485695   3.092951   3.065913   1.338387   2.450182
     7  C    2.974717   2.993839   2.510188   2.474884   1.509439
     8  H    1.086064   2.087657   3.437054   2.160657   4.124158
     9  H    2.088303   1.086147   2.156064   3.441868   3.373464
    10  H    3.378300   2.163554   1.086627   4.042949   2.092469
    11  H    3.449401   4.136522   4.017731   2.097915   3.243029
    12  C    4.471051   3.837776   2.507995   4.263407   1.444632
    13  H    5.115242   4.294577   2.862266   5.058935   2.223706
    14  C    5.164325   4.781681   3.617298   4.660930   2.326445
    15  C    4.548493   4.499119   3.723976   3.870500   2.427395
    16  H    2.914503   2.948178   2.792881   2.736979   2.145308
    17  C    5.218853   5.471650   4.845710   4.180129   3.585244
    18  C    5.286887   5.174509   4.503705   4.809050   3.351389
    19  N    5.931289   6.351587   5.817110   4.718922   4.602997
    20  N    6.024553   5.874734   5.290745   5.680872   4.267401
    21  H    2.158989   3.366661   4.031257   1.086482   4.039982
    22  C    6.613328   6.218382   4.986642   6.028962   3.750505
    23  C    7.325757   6.817626   5.477656   6.797044   4.412040
    24  C    7.515751   7.229348   6.097541   6.842232   4.806854
    25  C    8.700126   8.199157   6.850287   8.124167   5.788314
    26  H    6.944131   6.359177   4.990668   6.511193   4.103342
    27  C    8.862768   8.546681   7.357220   8.163725   6.096317
    28  H    7.322598   7.143296   6.156982   6.627344   4.848618
    29  C    9.395394   8.979966   7.687567   8.738262   6.515207
    30  H    9.341259   8.784536   7.406255   8.805786   6.456909
    31  H    9.609657   9.355346   8.226486   8.871670   6.942770
    32  H   10.474391  10.054390   8.749702   9.800066   7.592183
                    6          7          8          9         10
     6  C    0.000000
     7  C    1.503594   0.000000
     8  H    3.380406   3.983159   0.000000
     9  H    4.161391   4.009549   2.350914   0.000000
    10  H    4.082330   3.481933   4.206996   2.447868   0.000000
    11  H    1.084082   2.243547   4.246676   5.204982   4.970260
    12  C    3.422926   2.402265   5.547137   4.650343   2.759270
    13  H    4.357361   3.435147   6.160059   4.951539   2.686355
    14  C    3.526059   2.469733   6.239696   5.685620   4.045984
    15  C    2.626087   1.581493   5.550720   5.481880   4.490762
    16  H    2.123907   1.093535   3.775114   3.823432   3.786951
    17  C    2.849353   2.549909   6.151984   6.523542   5.658705
    18  C    3.696278   2.481391   6.195782   6.031519   5.239458
    19  N    3.459460   3.544949   6.793440   7.425118   6.641093
    20  N    4.671638   3.448290   6.849608   6.623245   5.982850
    21  H    2.079675   3.450545   2.443763   4.190686   4.955556
    22  C    4.831807   3.886013   7.690928   7.095640   5.258374
    23  C    5.700585   4.887981   8.410765   7.631691   5.513076
    24  C    5.560115   4.601937   8.563141   8.124357   6.466010
    25  C    6.987580   6.194778   9.785011   9.001294   6.838091
    26  H    5.558496   4.852129   8.014518   7.119710   4.887130
    27  C    6.875021   5.973638   9.918490   9.424882   7.628876
    28  H    5.332473   4.348412   8.322610   8.048968   6.664441
    29  C    7.504800   6.660725  10.474764   9.821209   7.795545
    30  H    7.738768   7.014791  10.418869   9.539123   7.268026
    31  H    7.557688   6.662525  10.641131  10.240930   8.555870
    32  H    8.560672   7.739245  11.553928  10.886213   8.820546
                   11         12         13         14         15
    11  H    0.000000
    12  C    3.894637   0.000000
    13  H    4.825443   1.082806   0.000000
    14  C    3.714437   1.340102   2.143988   0.000000
    15  C    2.784257   2.357780   3.404839   1.546089   0.000000
    16  H    2.954738   3.164600   4.147548   3.241110   2.196289
    17  C    2.425181   3.474472   4.452216   2.491760   1.469643
    18  C    3.948499   3.309379   4.264923   2.483423   1.473247
    19  N    2.705689   4.480421   5.398094   3.487026   2.615470
    20  N    4.966645   4.247773   5.117747   3.478778   2.619164
    21  H    2.381135   5.194122   5.959231   5.525438   4.703268
    22  C    4.804274   2.518216   2.853165   1.467878   2.651836
    23  C    5.656886   3.012796   2.856094   2.479418   3.884623
    24  C    5.412862   3.742510   4.181223   2.507840   3.100723
    25  C    6.844663   4.383645   4.156130   3.757081   5.049855
    26  H    5.598619   2.729730   2.286190   2.685153   4.170107
    27  C    6.645506   4.914948   5.158076   3.776877   4.476692
    28  H    5.190554   4.045282   4.685689   2.749779   2.785887
    29  C    7.282669   5.179737   5.154358   4.270133   5.295885
    30  H    7.599474   5.039384   4.620036   4.617579   5.986796
    31  H    7.279705   5.847492   6.162638   4.644907   5.107241
    32  H    8.296360   6.242654   6.157417   5.354155   6.354912
                   16         17         18         19         20
    16  H    0.000000
    17  C    3.213223   0.000000
    18  C    2.439984   2.388336   0.000000
    19  N    4.193781   1.145986   3.394874   0.000000
    20  N    3.110966   3.400204   1.146337   4.283185   0.000000
    21  H    3.731479   4.735971   5.681983   5.048820   6.558382
    22  C    4.619073   3.090072   3.246170   3.809506   4.044028
    23  C    5.714204   4.250980   4.609067   4.833056   5.396866
    24  C    5.169700   3.227850   3.207377   3.756697   3.739551
    25  C    6.991183   5.229002   5.606258   5.636305   6.262942
    26  H    5.739387   4.644205   5.084559   5.266818   5.955685
    27  C    6.556166   4.438376   4.527386   4.746081   4.910411
    28  H    4.746064   2.854869   2.515004   3.398743   2.894874
    29  C    7.357975   5.312738   5.578231   5.605262   6.063777
    30  H    7.852376   6.169094   6.622867   6.537941   7.299806
    31  H    7.148793   4.943071   4.930309   5.127408   5.123497
    32  H    8.428533   6.297239   6.579325   6.493149   6.991244
                   21         22         23         24         25
    21  H    0.000000
    22  C    6.817633   0.000000
    23  C    7.539727   1.400078   0.000000
    24  C    7.597537   1.397003   2.400112   0.000000
    25  C    8.828360   2.422394   1.383626   2.772631   0.000000
    26  H    7.237087   2.154151   1.083723   3.385980   2.134274
    27  C    8.879283   2.420085   2.768207   1.387037   2.398257
    28  H    7.380432   2.161163   3.392346   1.082612   3.854896
    29  C    9.438253   2.802580   2.403878   2.406614   1.389611
    30  H    9.478821   3.400489   2.138848   3.856730   1.084188
    31  H    9.565244   3.396526   3.852088   2.139121   3.383831
    32  H   10.476861   3.886627   3.386857   3.389471   2.150209
                   26         27         28         29         30
    26  H    0.000000
    27  C    3.851428   0.000000
    28  H    4.297239   2.127972   0.000000
    29  C    3.380727   1.386525   3.375867   0.000000
    30  H    2.450133   3.383272   4.939031   2.149414   0.000000
    31  H    4.935259   1.083912   2.435880   2.146846   4.283651
    32  H    4.274567   2.147550   4.267069   1.084048   2.480114
                   31         32
    31  H    0.000000
    32  H    2.477742   0.000000
 Stoichiometry    C18H12N2
 Framework group  C1[X(C18H12N2)]
 Deg. of freedom    90
 Full point group                 C1      NOp   1
 Largest Abelian subgroup         C1      NOp   1
 Largest concise Abelian subgroup C1      NOp   1
                         Standard orientation:                         
 ---------------------------------------------------------------------
 Center     Atomic      Atomic             Coordinates (Angstroms)
 Number     Number       Type             X           Y           Z
 ---------------------------------------------------------------------
      1          6           0       -4.577624   -0.368281   -0.224080
      2          6           0       -4.102000   -1.361764    0.561114
      3          6           0       -2.736622   -1.824583    0.608013
      4          6           0       -3.811075    0.396757   -1.185856
      5          6           0       -1.660051   -1.056282    0.366582
      6          6           0       -2.516441    0.721207   -1.086181
      7          6           0       -1.741704    0.438202    0.170993
      8          1           0       -5.651728   -0.207630   -0.229221
      9          1           0       -4.825306   -1.938140    1.130617
     10          1           0       -2.580263   -2.872413    0.849597
     11          1           0       -2.024403    1.222549   -1.911886
     12          6           0       -0.274013   -1.458852    0.304964
     13          1           0        0.036445   -2.493888    0.374138
     14          6           0        0.571263   -0.427688    0.170488
     15          6           0       -0.227941    0.895673    0.190009
     16          1           0       -2.263315    0.897616    1.015197
     17          6           0        0.133929    1.757612   -0.943994
     18          6           0        0.023373    1.636021    1.438681
     19          7           0        0.404026    2.413710   -1.843920
     20          7           0        0.187952    2.191189    2.428020
     21          1           0       -4.345395    0.716751   -2.076108
     22          6           0        2.030219   -0.484080    0.019047
     23          6           0        2.630910   -1.650028   -0.470803
     24          6           0        2.854164    0.595186    0.347556
     25          6           0        4.005130   -1.741025   -0.603694
     26          1           0        2.012594   -2.486305   -0.775403
     27          6           0        4.231444    0.502999    0.211644
     28          1           0        2.433612    1.516394    0.730387
     29          6           0        4.813050   -0.663848   -0.260219
     30          1           0        4.447663   -2.652298   -0.989971
     31          1           0        4.850748    1.351875    0.477607
     32          1           0        5.889438   -0.732162   -0.369222
 ---------------------------------------------------------------------
 Rotational constants (GHZ):           0.7224898           0.2297825           0.2077275
 Standard basis: 6-311+G(d) (5D, 7F)
 There are   496 symmetry adapted cartesian basis functions of A   symmetry.
 There are   476 symmetry adapted basis functions of A   symmetry.
   476 basis functions,   780 primitive gaussians,   496 cartesian basis functions
    67 alpha electrons       67 beta electrons
       nuclear repulsion energy      1359.3385742406 Hartrees.
 NAtoms=   32 NActive=   32 NUniq=   32 SFac= 1.00D+00 NAtFMM=   60 NAOKFM=F Big=F
 Integral buffers will be    131072 words long.
 Raffenetti 2 integral format.
 Two-electron integral symmetry is turned on.
 ------------------------------------------------------------------------------
 Polarizable Continuum Model (PCM)
 =================================
 Model                : PCM.
 Atomic radii         : UFF (Universal Force Field).
 Polarization charges : Total charges.
 Charge compensation  : None.
 Solution method      : On-the-fly selection.
 Cavity type          : Scaled VdW (van der Waals Surface) (Alpha=1.100).
 Cavity algorithm     : GePol (No added spheres)
                        Default sphere list used, NSphG=   32.
                        Lebedev-Laikov grids with approx.  5.0 points / Ang**2.
                        Smoothing algorithm: York/Karplus (Gamma=1.0000).
                        Polarization charges: spherical gaussians, with
                                              point-specific exponents (IZeta= 3).
                        Self-potential: point-specific (ISelfS= 7).
                        Self-field    : sphere-specific E.n sum rule (ISelfD= 2).
 1st derivatives      : Analytical E(r).r(x)/FMM algorithm (CHGder, D1EAlg=3).
                        Cavity 1st derivative terms included.
 Solvent              : Acetonitrile, Eps=  35.688000 Eps(inf)=   1.806874
 ------------------------------------------------------------------------------
 One-electron integrals computed using PRISM.
 NBasis=   476 RedAO= T EigKep=  1.25D-06  NBF=   476
 NBsUse=   472 1.00D-06 EigRej=  8.94D-07 NBFU=   472
 ExpMin= 4.38D-02 ExpMax= 6.29D+03 ExpMxC= 9.49D+02 IAcc=3 IRadAn=         5 AccDes= 0.00D+00
 Harris functional with IExCor= 1009 and IRadAn=       5 diagonalized for initial guess.
 HarFok:  IExCor= 1009 AccDes= 0.00D+00 IRadAn=         5 IDoV= 1 UseB2=F ITyADJ=14
 ICtDFT=  3500011 ScaDFX=  1.000000  1.000000  1.000000  1.000000
 FoFCou: FMM=F IPFlag=           0 FMFlag=      100000 FMFlg1=           0
         NFxFlg=           0 DoJE=T BraDBF=F KetDBF=T FulRan=T
         wScrn=  0.000000 ICntrl=       500 IOpCl=  0 I1Cent=   200000004 NGrid=           0
         NMat0=    1 NMatS0=      1 NMatT0=    0 NMatD0=    1 NMtDS0=    0 NMtDT0=    0
 Petite list used in FoFCou.
 Requested convergence on RMS density matrix=1.00D-08 within 128 cycles.
 Requested convergence on MAX density matrix=1.00D-06.
 Requested convergence on             energy=1.00D-06.
 No special actions if energy rises.
 Inv3:  Mode=1 IEnd=    18540588.
 Iteration    1 A*A^-1 deviation from unit magnitude is 2.89D-15 for    184.
 Iteration    1 A*A^-1 deviation from orthogonality  is 2.27D-15 for   1503    756.
 Iteration    1 A^-1*A deviation from unit magnitude is 2.78D-15 for   2418.
 Iteration    1 A^-1*A deviation from orthogonality  is 2.66D-15 for   2195   2029.
 Error on total polarization charges =  0.01805
 SCF Done:  E(RM062X) =  -802.424641342     A.U. after   16 cycles
            NFock= 16  Conv=0.93D-08     -V/T= 2.0038

 **********************************************************************

            Population analysis using the SCF density.

 **********************************************************************

 Orbital symmetries:
       Occupied  (A) (A) (A) (A) (A) (A) (A) (A) (A) (A) (A) (A)
                 (A) (A) (A) (A) (A) (A) (A) (A) (A) (A) (A) (A)
                 (A) (A) (A) (A) (A) (A) (A) (A) (A) (A) (A) (A)
                 (A) (A) (A) (A) (A) (A) (A) (A) (A) (A) (A) (A)
                 (A) (A) (A) (A) (A) (A) (A) (A) (A) (A) (A) (A)
                 (A) (A) (A) (A) (A) (A) (A)
       Virtual   (A) (A) (A) (A) (A) (A) (A) (A) (A) (A) (A) (A)
                 (A) (A) (A) (A) (A) (A) (A) (A) (A) (A) (A) (A)
                 (A) (A) (A) (A) (A) (A) (A) (A) (A) (A) (A) (A)
                 (A) (A) (A) (A) (A) (A) (A) (A) (A) (A) (A) (A)
                 (A) (A) (A) (A) (A) (A) (A) (A) (A) (A) (A) (A)
                 (A) (A) (A) (A) (A) (A) (A) (A) (A) (A) (A) (A)
                 (A) (A) (A) (A) (A) (A) (A) (A) (A) (A) (A) (A)
                 (A) (A) (A) (A) (A) (A) (A) (A) (A) (A) (A) (A)
                 (A) (A) (A) (A) (A) (A) (A) (A) (A) (A) (A) (A)
                 (A) (A) (A) (A) (A) (A) (A) (A) (A) (A) (A) (A)
                 (A) (A) (A) (A) (A) (A) (A) (A) (A) (A) (A) (A)
                 (A) (A) (A) (A) (A) (A) (A) (A) (A) (A) (A) (A)
                 (A) (A) (A) (A) (A) (A) (A) (A) (A) (A) (A) (A)
                 (A) (A) (A) (A) (A) (A) (A) (A) (A) (A) (A) (A)
                 (A) (A) (A) (A) (A) (A) (A) (A) (A) (A) (A) (A)
                 (A) (A) (A) (A) (A) (A) (A) (A) (A) (A) (A) (A)
                 (A) (A) (A) (A) (A) (A) (A) (A) (A) (A) (A) (A)
                 (A) (A) (A) (A) (A) (A) (A) (A) (A) (A) (A) (A)
                 (A) (A) (A) (A) (A) (A) (A) (A) (A) (A) (A) (A)
                 (A) (A) (A) (A) (A) (A) (A) (A) (A) (A) (A) (A)
                 (A) (A) (A) (A) (A) (A) (A) (A) (A) (A) (A) (A)
                 (A) (A) (A) (A) (A) (A) (A) (A) (A) (A) (A) (A)
                 (A) (A) (A) (A) (A) (A) (A) (A) (A) (A) (A) (A)
                 (A) (A) (A) (A) (A) (A) (A) (A) (A) (A) (A) (A)
                 (A) (A) (A) (A) (A) (A) (A) (A) (A) (A) (A) (A)
                 (A) (A) (A) (A) (A) (A) (A) (A) (A) (A) (A) (A)
                 (A) (A) (A) (A) (A) (A) (A) (A) (A) (A) (A) (A)
                 (A) (A) (A) (A) (A) (A) (A) (A) (A) (A) (A) (A)
                 (A) (A) (A) (A) (A) (A) (A) (A) (A) (A) (A) (A)
                 (A) (A) (A) (A) (A) (A) (A) (A) (A) (A) (A) (A)
                 (A) (A) (A) (A) (A) (A) (A) (A) (A) (A) (A) (A)
                 (A) (A) (A) (A) (A) (A) (A) (A) (A) (A) (A) (A)
                 (A) (A) (A) (A) (A) (A) (A) (A) (A) (A) (A) (A)
                 (A) (A) (A) (A) (A) (A) (A) (A) (A)
 The electronic state is 1-A.
 Alpha  occ. eigenvalues --  -14.78515 -14.78369 -10.66558 -10.61500 -10.61458
 Alpha  occ. eigenvalues --  -10.59647 -10.59646 -10.57758 -10.57697 -10.57467
 Alpha  occ. eigenvalues --  -10.56588 -10.56084 -10.55955 -10.55920 -10.55895
 Alpha  occ. eigenvalues --  -10.55791 -10.55570 -10.55559 -10.55513 -10.55456
 Alpha  occ. eigenvalues --   -1.07036  -1.05042  -1.02031  -0.98410  -0.95066
 Alpha  occ. eigenvalues --   -0.91259  -0.89002  -0.87434  -0.86024  -0.83944
 Alpha  occ. eigenvalues --   -0.77222  -0.74651  -0.71512  -0.70364  -0.68578
 Alpha  occ. eigenvalues --   -0.66845  -0.64021  -0.62533  -0.60208  -0.59238
 Alpha  occ. eigenvalues --   -0.56042  -0.55487  -0.53832  -0.53307  -0.52627
 Alpha  occ. eigenvalues --   -0.51516  -0.50347  -0.49424  -0.48687  -0.48263
 Alpha  occ. eigenvalues --   -0.47655  -0.46917  -0.46150  -0.45643  -0.44506
 Alpha  occ. eigenvalues --   -0.43666  -0.43278  -0.43160  -0.42469  -0.41811
 Alpha  occ. eigenvalues --   -0.40507  -0.39803  -0.38695  -0.34106  -0.32440
 Alpha  occ. eigenvalues --   -0.31367  -0.26938
 Alpha virt. eigenvalues --   -0.05933  -0.00947  -0.00108   0.00641   0.01503
 Alpha virt. eigenvalues --    0.01630   0.01989   0.02107   0.02624   0.02779
 Alpha virt. eigenvalues --    0.03297   0.03728   0.04034   0.04284   0.04454
 Alpha virt. eigenvalues --    0.04961   0.05394   0.05732   0.06179   0.06407
 Alpha virt. eigenvalues --    0.06799   0.07144   0.07554   0.07775   0.08388
 Alpha virt. eigenvalues --    0.08564   0.08754   0.09018   0.10044   0.10567
 Alpha virt. eigenvalues --    0.10936   0.11231   0.11472   0.12034   0.12531
 Alpha virt. eigenvalues --    0.13037   0.13463   0.14260   0.14620   0.14805
 Alpha virt. eigenvalues --    0.15193   0.15487   0.15888   0.16234   0.16292
 Alpha virt. eigenvalues --    0.16812   0.17107   0.17375   0.17712   0.17951
 Alpha virt. eigenvalues --    0.18188   0.18743   0.19274   0.19629   0.19773
 Alpha virt. eigenvalues --    0.20142   0.20243   0.20588   0.20890   0.21183
 Alpha virt. eigenvalues --    0.21411   0.21697   0.22039   0.22210   0.22474
 Alpha virt. eigenvalues --    0.22967   0.23473   0.23685   0.23883   0.24193
 Alpha virt. eigenvalues --    0.24512   0.24657   0.24928   0.25066   0.25452
 Alpha virt. eigenvalues --    0.25576   0.25753   0.26341   0.26400   0.26507
 Alpha virt. eigenvalues --    0.27030   0.27149   0.27641   0.28079   0.28256
 Alpha virt. eigenvalues --    0.28468   0.28679   0.29174   0.29777   0.30062
 Alpha virt. eigenvalues --    0.30497   0.31308   0.31562   0.31700   0.31870
 Alpha virt. eigenvalues --    0.32754   0.33113   0.33769   0.35044   0.35328
 Alpha virt. eigenvalues --    0.35553   0.36205   0.36644   0.37357   0.37804
 Alpha virt. eigenvalues --    0.38403   0.39172   0.39755   0.40259   0.41060
 Alpha virt. eigenvalues --    0.42001   0.43107   0.44547   0.46092   0.47659
 Alpha virt. eigenvalues --    0.48397   0.50528   0.51242   0.54095   0.55079
 Alpha virt. eigenvalues --    0.55466   0.55584   0.55860   0.56984   0.57829
 Alpha virt. eigenvalues --    0.58290   0.58576   0.59578   0.60294   0.60757
 Alpha virt. eigenvalues --    0.61537   0.61665   0.62169   0.62402   0.63057
 Alpha virt. eigenvalues --    0.63455   0.64197   0.64357   0.65190   0.65730
 Alpha virt. eigenvalues --    0.66356   0.67815   0.67965   0.68309   0.69706
 Alpha virt. eigenvalues --    0.69892   0.70248   0.70651   0.70921   0.71499
 Alpha virt. eigenvalues --    0.72755   0.73138   0.73171   0.73357   0.74356
 Alpha virt. eigenvalues --    0.74719   0.75328   0.75803   0.76207   0.76802
 Alpha virt. eigenvalues --    0.77261   0.77971   0.78743   0.78901   0.79356
 Alpha virt. eigenvalues --    0.80367   0.80957   0.81985   0.82300   0.83524
 Alpha virt. eigenvalues --    0.84038   0.84551   0.85161   0.86301   0.86806
 Alpha virt. eigenvalues --    0.87057   0.87614   0.88031   0.88753   0.89143
 Alpha virt. eigenvalues --    0.90537   0.90729   0.91064   0.92694   0.92834
 Alpha virt. eigenvalues --    0.93961   0.94833   0.95223   0.95653   0.97140
 Alpha virt. eigenvalues --    0.97982   0.98347   0.98495   0.99866   1.00547
 Alpha virt. eigenvalues --    1.01118   1.01707   1.02741   1.04107   1.05562
 Alpha virt. eigenvalues --    1.07331   1.07845   1.08250   1.09823   1.11266
 Alpha virt. eigenvalues --    1.12373   1.13335   1.14558   1.15886   1.17713
 Alpha virt. eigenvalues --    1.18414   1.21298   1.23626   1.25210   1.26941
 Alpha virt. eigenvalues --    1.27468   1.28161   1.28819   1.30595   1.31762
 Alpha virt. eigenvalues --    1.32848   1.34161   1.36625   1.39334   1.40537
 Alpha virt. eigenvalues --    1.42583   1.44286   1.45805   1.46825   1.49006
 Alpha virt. eigenvalues --    1.49355   1.51215   1.52652   1.54357   1.54677
 Alpha virt. eigenvalues --    1.55984   1.56881   1.58260   1.58641   1.60202
 Alpha virt. eigenvalues --    1.60413   1.62854   1.64155   1.65189   1.67053
 Alpha virt. eigenvalues --    1.67962   1.69611   1.72341   1.73101   1.74372
 Alpha virt. eigenvalues --    1.75837   1.76114   1.78186   1.79398   1.81238
 Alpha virt. eigenvalues --    1.81769   1.83165   1.84681   1.85254   1.86419
 Alpha virt. eigenvalues --    1.86733   1.88578   1.89732   1.90644   1.92727
 Alpha virt. eigenvalues --    1.93076   1.95452   1.96183   1.96403   1.98035
 Alpha virt. eigenvalues --    1.98786   2.00011   2.01512   2.02465   2.02670
 Alpha virt. eigenvalues --    2.04234   2.05125   2.08712   2.10502   2.12514
 Alpha virt. eigenvalues --    2.13268   2.13422   2.14845   2.17023   2.19657
 Alpha virt. eigenvalues --    2.21405   2.21780   2.24142   2.26663   2.28118
 Alpha virt. eigenvalues --    2.28980   2.30624   2.32181   2.33691   2.35938
 Alpha virt. eigenvalues --    2.36549   2.38988   2.39852   2.42179   2.44597
 Alpha virt. eigenvalues --    2.45637   2.48277   2.48473   2.49912   2.51851
 Alpha virt. eigenvalues --    2.52232   2.56953   2.59938   2.62904   2.67080
 Alpha virt. eigenvalues --    2.68045   2.69907   2.71517   2.73067   2.76342
 Alpha virt. eigenvalues --    2.78359   2.81300   2.82136   2.83623   2.84659
 Alpha virt. eigenvalues --    2.84758   2.86298   2.88962   2.91006   2.92184
 Alpha virt. eigenvalues --    2.94316   2.94987   2.95982   2.98261   2.99329
 Alpha virt. eigenvalues --    3.00785   3.01485   3.03554   3.05616   3.06596
 Alpha virt. eigenvalues --    3.07360   3.08583   3.11387   3.13290   3.14483
 Alpha virt. eigenvalues --    3.15457   3.16425   3.20331   3.22935   3.24276
 Alpha virt. eigenvalues --    3.25430   3.28425   3.31253   3.32926   3.34173
 Alpha virt. eigenvalues --    3.36829   3.37054   3.37249   3.38155   3.38431
 Alpha virt. eigenvalues --    3.39741   3.40595   3.43293   3.48984   3.53165
 Alpha virt. eigenvalues --    3.54136   3.59597   3.61006   3.66745   3.69547
 Alpha virt. eigenvalues --    3.69872   3.74749   3.76585   3.93576   3.94620
 Alpha virt. eigenvalues --    3.99005   4.02851   4.07163   4.08826   4.09617
 Alpha virt. eigenvalues --    4.10648   4.11897   4.15828   4.35025   4.47047
 Alpha virt. eigenvalues --    4.50716   4.62479   4.68274   4.73606   4.81279
 Alpha virt. eigenvalues --   23.41164  23.51272  23.70419  23.76179  23.81323
 Alpha virt. eigenvalues --   23.87819  23.90885  23.92741  23.98002  24.10764
 Alpha virt. eigenvalues --   24.14027  24.22381  24.22669  24.23683  24.25496
 Alpha virt. eigenvalues --   24.28996  24.40959  24.47004  35.95648  35.98161
          Condensed to atoms (all electrons):
               1          2          3          4          5          6
     1  C    6.832329  -0.189513   0.492194  -0.235318  -0.538204   0.427585
     2  C   -0.189513   8.732987  -2.587314   1.060455   2.190629  -0.891218
     3  C    0.492194  -2.587314  19.281067  -0.458517  -9.969552   0.028273
     4  C   -0.235318   1.060455  -0.458517  13.244184  -0.018734  -6.644934
     5  C   -0.538204   2.190629  -9.969552  -0.018734  23.716004   0.015801
     6  C    0.427585  -0.891218   0.028273  -6.644934   0.015801  15.071830
     7  C   -1.033585   0.183287   0.834096   0.925077  -2.928548  -2.972629
     8  H    0.242992   0.048412  -0.048711   0.100723   0.010189  -0.048914
     9  H    0.071475   0.221428   0.002815  -0.037261   0.033618   0.035224
    10  H   -0.016149  -0.002673   0.318954   0.018869  -0.063345  -0.026809
    11  H   -0.022664   0.003516  -0.018977  -0.005591   0.097739   0.324639
    12  C    0.203346  -0.884980  -1.805041   0.218662  -0.406595  -0.542720
    13  H   -0.000495   0.012253   0.049123   0.004496   0.064961  -0.005530
    14  C    0.590617  -1.738973   3.230433  -0.850579  -8.291270   2.182603
    15  C   -0.434024   0.385957  -3.064500  -0.040291   2.510036   0.181992
    16  H    0.026587   0.001768   0.047356  -0.023455  -0.050753  -0.028762
    17  C   -0.162942   0.051349  -0.298398  -0.373153  -0.582056  -1.021765
    18  C   -0.131840   0.255590  -0.681153  -0.050178   1.596368  -0.411050
    19  N   -0.002688   0.004228  -0.001053  -0.018043   0.103430   0.023648
    20  N    0.009968  -0.018308   0.071063  -0.001542  -0.141176   0.038761
    21  H    0.055487  -0.022188   0.040423   0.243378  -0.011396   0.027653
    22  C    0.042362  -0.233062   0.697024  -0.120219   0.051606   0.482119
    23  C    0.027058  -0.058624   0.317862   0.060700  -0.973269   0.075956
    24  C   -0.009242  -0.038565  -0.391912  -0.253640   0.495306   0.002338
    25  C    0.007428  -0.026104   0.186497   0.040697  -0.575365   0.059034
    26  H    0.000009   0.000480   0.000990  -0.000193   0.001304   0.000114
    27  C    0.001970  -0.009449   0.106128  -0.012133  -0.432006  -0.051484
    28  H   -0.000000   0.000104  -0.002030   0.001188  -0.005977   0.003049
    29  C   -0.000694   0.000977  -0.030205  -0.007202   0.075196  -0.004358
    30  H   -0.000001  -0.000001  -0.000295   0.000007   0.000048   0.000054
    31  H    0.000000  -0.000001  -0.000050  -0.000013  -0.000802  -0.000019
    32  H    0.000000   0.000000   0.000027   0.000001  -0.000151   0.000004
               7          8          9         10         11         12
     1  C   -1.033585   0.242992   0.071475  -0.016149  -0.022664   0.203346
     2  C    0.183287   0.048412   0.221428  -0.002673   0.003516  -0.884980
     3  C    0.834096  -0.048711   0.002815   0.318954  -0.018977  -1.805041
     4  C    0.925077   0.100723  -0.037261   0.018869  -0.005591   0.218662
     5  C   -2.928548   0.010189   0.033618  -0.063345   0.097739  -0.406595
     6  C   -2.972629  -0.048914   0.035224  -0.026809   0.324639  -0.542720
     7  C   12.263877   0.024356  -0.015048  -0.007679  -0.010347  -0.029993
     8  H    0.024356   0.414030  -0.006719  -0.000271  -0.000177   0.000473
     9  H   -0.015048  -0.006719   0.413621  -0.003811   0.000034   0.007774
    10  H   -0.007679  -0.000271  -0.003811   0.404144   0.000011   0.093599
    11  H   -0.010347  -0.000177   0.000034   0.000011   0.398603   0.002667
    12  C   -0.029993   0.000473   0.007774   0.093599   0.002667  13.433155
    13  H    0.010999  -0.000001  -0.000004   0.000220   0.000006   0.322068
    14  C   -1.728263  -0.002884   0.011113   0.006701  -0.016437   0.390744
    15  C    0.393588   0.003107  -0.002387  -0.004597  -0.021049  -0.634332
    16  H    0.444960   0.000303   0.000363  -0.000019   0.003811  -0.004935
    17  C    0.606417   0.001155  -0.000248  -0.000725   0.001055   1.271771
    18  C   -0.171144   0.000162  -0.000899   0.001594   0.001017  -0.196013
    19  N   -0.024771  -0.000017  -0.000001  -0.000003   0.008324  -0.083944
    20  N    0.022972   0.000001   0.000023  -0.000020   0.000025  -0.001432
    21  H    0.008617  -0.004795  -0.000208   0.000026  -0.005484  -0.005856
    22  C   -0.638848  -0.000138   0.000100  -0.000352  -0.004105  -3.436191
    23  C   -0.164908  -0.000013   0.000054   0.002040  -0.004588   1.963997
    24  C   -0.541177   0.000008   0.000106  -0.000547   0.005005  -2.525491
    25  C    0.190505  -0.000001  -0.000003   0.000406  -0.001198  -1.080264
    26  H   -0.002750  -0.000000  -0.000000   0.000011  -0.000002   0.136553
    27  C    0.211323  -0.000000   0.000005  -0.000005  -0.000150   0.330366
    28  H    0.013339   0.000000  -0.000000   0.000000  -0.000016   0.036469
    29  C   -0.085532   0.000000   0.000000  -0.000021   0.000162  -0.165898
    30  H   -0.000383   0.000000   0.000000  -0.000000   0.000000   0.003262
    31  H   -0.000991  -0.000000   0.000000   0.000000  -0.000000   0.000404
    32  H    0.000139  -0.000000  -0.000000  -0.000000  -0.000000   0.000257
              13         14         15         16         17         18
     1  C   -0.000495   0.590617  -0.434024   0.026587  -0.162942  -0.131840
     2  C    0.012253  -1.738973   0.385957   0.001768   0.051349   0.255590
     3  C    0.049123   3.230433  -3.064500   0.047356  -0.298398  -0.681153
     4  C    0.004496  -0.850579  -0.040291  -0.023455  -0.373153  -0.050178
     5  C    0.064961  -8.291270   2.510036  -0.050753  -0.582056   1.596368
     6  C   -0.005530   2.182603   0.181992  -0.028762  -1.021765  -0.411050
     7  C    0.010999  -1.728263   0.393588   0.444960   0.606417  -0.171144
     8  H   -0.000001  -0.002884   0.003107   0.000303   0.001155   0.000162
     9  H   -0.000004   0.011113  -0.002387   0.000363  -0.000248  -0.000899
    10  H    0.000220   0.006701  -0.004597  -0.000019  -0.000725   0.001594
    11  H    0.000006  -0.016437  -0.021049   0.003811   0.001055   0.001017
    12  C    0.322068   0.390744  -0.634332  -0.004935   1.271771  -0.196013
    13  H    0.379254  -0.168373   0.011968  -0.000168  -0.009150   0.012487
    14  C   -0.168373  16.899462  -3.456545   0.030104  -0.708361  -2.082265
    15  C    0.011968  -3.456545  14.391699  -0.122408  -3.729571   0.011723
    16  H   -0.000168   0.030104  -0.122408   0.379985   0.008656  -0.053470
    17  C   -0.009150  -0.708361  -3.729571   0.008656  12.786181  -1.339060
    18  C    0.012487  -2.082265   0.011723  -0.053470  -1.339060  10.413550
    19  N   -0.000025  -0.076508   0.312701  -0.002697   0.064001   0.241508
    20  N   -0.000359   0.276268  -0.166574   0.016117   0.227322  -0.018303
    21  H   -0.000001   0.004081  -0.011946   0.000130   0.004192  -0.001545
    22  C   -0.029666   2.246818  -0.550700   0.002537  -0.865875  -0.671325
    23  C    0.032972   0.821845  -1.899915   0.000503   0.439014  -0.440919
    24  C   -0.026740  -3.820526   2.391387   0.006546  -0.607707   1.333019
    25  C    0.043587   1.069485  -0.345502  -0.000128   0.053836  -0.397779
    26  H   -0.001123   0.038075  -0.021212   0.000000   0.010541   0.000484
    27  C   -0.005484   1.077428  -1.433124   0.000651   0.884319  -0.722502
    28  H    0.000009   0.072945   0.080221   0.000024   0.003152  -0.045095
    29  C    0.000912  -0.800165   0.049017   0.000117  -0.024716   0.144372
    30  H    0.000006  -0.010148   0.001080   0.000000  -0.000826   0.000339
    31  H   -0.000000  -0.010956  -0.006243   0.000000   0.002644  -0.000286
    32  H   -0.000000   0.005359   0.000439  -0.000000  -0.000766   0.000188
              19         20         21         22         23         24
     1  C   -0.002688   0.009968   0.055487   0.042362   0.027058  -0.009242
     2  C    0.004228  -0.018308  -0.022188  -0.233062  -0.058624  -0.038565
     3  C   -0.001053   0.071063   0.040423   0.697024   0.317862  -0.391912
     4  C   -0.018043  -0.001542   0.243378  -0.120219   0.060700  -0.253640
     5  C    0.103430  -0.141176  -0.011396   0.051606  -0.973269   0.495306
     6  C    0.023648   0.038761   0.027653   0.482119   0.075956   0.002338
     7  C   -0.024771   0.022972   0.008617  -0.638848  -0.164908  -0.541177
     8  H   -0.000017   0.000001  -0.004795  -0.000138  -0.000013   0.000008
     9  H   -0.000001   0.000023  -0.000208   0.000100   0.000054   0.000106
    10  H   -0.000003  -0.000020   0.000026  -0.000352   0.002040  -0.000547
    11  H    0.008324   0.000025  -0.005484  -0.004105  -0.004588   0.005005
    12  C   -0.083944  -0.001432  -0.005856  -3.436191   1.963997  -2.525491
    13  H   -0.000025  -0.000359  -0.000001  -0.029666   0.032972  -0.026740
    14  C   -0.076508   0.276268   0.004081   2.246818   0.821845  -3.820526
    15  C    0.312701  -0.166574  -0.011946  -0.550700  -1.899915   2.391387
    16  H   -0.002697   0.016117   0.000130   0.002537   0.000503   0.006546
    17  C    0.064001   0.227322   0.004192  -0.865875   0.439014  -0.607707
    18  C    0.241508  -0.018303  -0.001545  -0.671325  -0.440919   1.333019
    19  N    6.736317  -0.035502   0.000001  -0.011107  -0.061261   0.222835
    20  N   -0.035502   6.797308   0.000018   0.142562   0.076199  -0.124901
    21  H    0.000001   0.000018   0.407377   0.000774  -0.000083  -0.000018
    22  C   -0.011107   0.142562   0.000774  11.744090  -0.972443  -3.577408
    23  C   -0.061261   0.076199  -0.000083  -0.972443  11.317069  -1.028687
    24  C    0.222835  -0.124901  -0.000018  -3.577408  -1.028687  24.926741
    25  C   -0.047857   0.036524   0.000003   0.289612  -3.868514  -4.345379
    26  H   -0.000117  -0.000039   0.000000  -0.110484   0.412682  -0.108489
    27  C   -0.106259   0.078901  -0.000005   1.964769   0.218889  -9.757510
    28  H   -0.003445   0.004387   0.000000   0.034300  -0.011876   0.240806
    29  C    0.016901  -0.012804  -0.000000  -1.527776   0.339536   3.223547
    30  H    0.000010  -0.000006   0.000000   0.033044  -0.009871   0.029716
    31  H   -0.000092   0.000069   0.000000   0.003459   0.013053  -0.059174
    32  H    0.000030  -0.000003  -0.000000   0.042773  -0.042654  -0.053823
              25         26         27         28         29         30
     1  C    0.007428   0.000009   0.001970  -0.000000  -0.000694  -0.000001
     2  C   -0.026104   0.000480  -0.009449   0.000104   0.000977  -0.000001
     3  C    0.186497   0.000990   0.106128  -0.002030  -0.030205  -0.000295
     4  C    0.040697  -0.000193  -0.012133   0.001188  -0.007202   0.000007
     5  C   -0.575365   0.001304  -0.432006  -0.005977   0.075196   0.000048
     6  C    0.059034   0.000114  -0.051484   0.003049  -0.004358   0.000054
     7  C    0.190505  -0.002750   0.211323   0.013339  -0.085532  -0.000383
     8  H   -0.000001  -0.000000  -0.000000   0.000000   0.000000   0.000000
     9  H   -0.000003  -0.000000   0.000005  -0.000000   0.000000   0.000000
    10  H    0.000406   0.000011  -0.000005   0.000000  -0.000021  -0.000000
    11  H   -0.001198  -0.000002  -0.000150  -0.000016   0.000162   0.000000
    12  C   -1.080264   0.136553   0.330366   0.036469  -0.165898   0.003262
    13  H    0.043587  -0.001123  -0.005484   0.000009   0.000912   0.000006
    14  C    1.069485   0.038075   1.077428   0.072945  -0.800165  -0.010148
    15  C   -0.345502  -0.021212  -1.433124   0.080221   0.049017   0.001080
    16  H   -0.000128   0.000000   0.000651   0.000024   0.000117   0.000000
    17  C    0.053836   0.010541   0.884319   0.003152  -0.024716  -0.000826
    18  C   -0.397779   0.000484  -0.722502  -0.045095   0.144372   0.000339
    19  N   -0.047857  -0.000117  -0.106259  -0.003445   0.016901   0.000010
    20  N    0.036524  -0.000039   0.078901   0.004387  -0.012804  -0.000006
    21  H    0.000003   0.000000  -0.000005   0.000000  -0.000000   0.000000
    22  C    0.289612  -0.110484   1.964769   0.034300  -1.527776   0.033044
    23  C   -3.868514   0.412682   0.218889  -0.011876   0.339536  -0.009871
    24  C   -4.345379  -0.108489  -9.757510   0.240806   3.223547   0.029716
    25  C   13.960225  -0.026382   2.004480   0.007272  -0.883040   0.262055
    26  H   -0.026382   0.406780   0.011518  -0.000147  -0.024088  -0.003887
    27  C    2.004480   0.011518  13.457584  -0.071499  -1.285892  -0.036396
    28  H    0.007272  -0.000147  -0.071499   0.416100  -0.031972   0.000071
    29  C   -0.883040  -0.024088  -1.285892  -0.031972   6.980459   0.057953
    30  H    0.262055  -0.003887  -0.036396   0.000071   0.057953   0.402648
    31  H   -0.032219   0.000073   0.334240  -0.004067   0.088395  -0.000178
    32  H    0.041033  -0.000238   0.072068  -0.000272   0.265711  -0.004545
              31         32
     1  C    0.000000   0.000000
     2  C   -0.000001   0.000000
     3  C   -0.000050   0.000027
     4  C   -0.000013   0.000001
     5  C   -0.000802  -0.000151
     6  C   -0.000019   0.000004
     7  C   -0.000991   0.000139
     8  H   -0.000000  -0.000000
     9  H    0.000000  -0.000000
    10  H    0.000000  -0.000000
    11  H   -0.000000  -0.000000
    12  C    0.000404   0.000257
    13  H   -0.000000  -0.000000
    14  C   -0.010956   0.005359
    15  C   -0.006243   0.000439
    16  H    0.000000  -0.000000
    17  C    0.002644  -0.000766
    18  C   -0.000286   0.000188
    19  N   -0.000092   0.000030
    20  N    0.000069  -0.000003
    21  H    0.000000  -0.000000
    22  C    0.003459   0.042773
    23  C    0.013053  -0.042654
    24  C   -0.059174  -0.053823
    25  C   -0.032219   0.041033
    26  H    0.000073  -0.000238
    27  C    0.334240   0.072068
    28  H   -0.004067  -0.000272
    29  C    0.088395   0.265711
    30  H   -0.000178  -0.004545
    31  H    0.403373  -0.004691
    32  H   -0.004691   0.403832
 Mulliken charges:
               1
     1  C   -0.254048
     2  C   -0.452448
     3  C   -0.346615
     4  C   -0.767444
     5  C    0.026966
     6  C   -0.330487
     7  C    0.223043
     8  H    0.266730
     9  H    0.268836
    10  H    0.280450
    11  H    0.264172
    12  C   -0.611883
    13  H    0.301799
    14  C    0.808171
    15  C    1.220004
    16  H    0.316276
    17  C   -0.690286
    18  C   -0.597574
    19  N   -0.258545
    20  N   -0.277518
    21  H    0.271367
    22  C    0.971748
    23  C   -0.581807
    24  C    0.393576
    25  C   -0.622944
    26  H    0.279537
    27  C   -0.830739
    28  H    0.262958
    29  C   -0.358893
    30  H    0.276243
    31  H    0.274074
    32  H    0.275280
 Sum of Mulliken charges =  -0.00000
 Mulliken charges with hydrogens summed into heavy atoms:
               1
     1  C    0.012682
     2  C   -0.183612
     3  C   -0.066165
     4  C   -0.496076
     5  C    0.026966
     6  C   -0.066316
     7  C    0.539319
    12  C   -0.310085
    14  C    0.808171
    15  C    1.220004
    17  C   -0.690286
    18  C   -0.597574
    19  N   -0.258545
    20  N   -0.277518
    22  C    0.971748
    23  C   -0.302270
    24  C    0.656535
    25  C   -0.346701
    27  C   -0.556664
    29  C   -0.083613
 Electronic spatial extent (au):  <R**2>=           5422.3932
 Charge=             -0.0000 electrons
 Dipole moment (field-independent basis, Debye):
    X=             -1.6097    Y=             -5.9384    Z=             -0.6344  Tot=              6.1853
 Quadrupole moment (field-independent basis, Debye-Ang):
   XX=            -89.8628   YY=           -118.1963   ZZ=           -132.9352
   XY=             -2.1510   XZ=             -0.2410   YZ=             -1.4225
 Traceless Quadrupole moment (field-independent basis, Debye-Ang):
   XX=             23.8019   YY=             -4.5315   ZZ=            -19.2704
   XY=             -2.1510   XZ=             -0.2410   YZ=             -1.4225
 Octapole moment (field-independent basis, Debye-Ang**2):
  XXX=              9.6761  YYY=            -69.3321  ZZZ=            -20.9139  XYY=              4.2369
  XXY=            -15.8778  XXZ=             -9.2448  XZZ=            -20.7970  YZZ=            -33.9709
  YYZ=              2.2164  XYZ=             26.9875
 Hexadecapole moment (field-independent basis, Debye-Ang**3):
 XXXX=          -4583.5097 YYYY=          -1413.3016 ZZZZ=           -869.7962 XXXY=              9.1835
 XXXZ=            -20.3400 YYYX=            -10.7709 YYYZ=              3.7681 ZZZX=             23.8289
 ZZZY=            -42.4515 XXYY=          -1077.1819 XXZZ=          -1072.6056 YYZZ=           -454.5056
 XXYZ=             -1.3505 YYXZ=            -36.6099 ZZXY=            -25.5313
 N-N= 1.359338574241D+03 E-N=-4.580380617534D+03  KE= 7.993553060421D+02
 D1PCM: PCM CHGder 1st derivatives, ID1Alg=3 FixD1E=F DoIter=F DoCFld=F I1PDM=0.
 Calling FoFJK, ICntrl=      2127 FMM=F ISym2X=0 I1Cent= 0 IOpClX= 0 NMat=1 NMatS=1 NMatT=0.
 ***** Axes restored to original set *****
 -------------------------------------------------------------------
 Center     Atomic                   Forces (Hartrees/Bohr)
 Number     Number              X              Y              Z
 -------------------------------------------------------------------
      1        6          -0.002805751    0.002223147    0.000017546
      2        6          -0.000996648   -0.001548519    0.003020761
      3        6          -0.000621476   -0.003922465    0.000411396
      4        6          -0.002319921   -0.000000523   -0.002320218
      5        6           0.001928865    0.002452423   -0.000747818
      6        6           0.004179043    0.001378494   -0.001027402
      7        6          -0.001508522    0.001567253    0.001794053
      8        1           0.000064025   -0.000098186   -0.000202655
      9        1           0.000113113   -0.000129747   -0.000182234
     10        1           0.000435902    0.000020875   -0.000083668
     11        1           0.000027671    0.000080983   -0.000846196
     12        6          -0.000408243   -0.004547234    0.000281395
     13        1           0.000040316   -0.000494388   -0.000028756
     14        6           0.001810171    0.001988448   -0.000510111
     15        6          -0.001500589   -0.002211164   -0.000107780
     16        1          -0.000566969    0.000338185    0.000569334
     17        6          -0.000113148   -0.001571965    0.002946103
     18        6           0.000049202   -0.001119189   -0.002901982
     19        7           0.001597905    0.002309445   -0.003444970
     20        7           0.000810411    0.001731778    0.003727848
     21        1           0.000058985    0.000026782   -0.000027293
     22        6          -0.001412731    0.000645831    0.000101440
     23        6          -0.003205331   -0.003103374   -0.001160318
     24        6          -0.002324862    0.002630932    0.000842857
     25        6           0.001473135   -0.003070140   -0.001245978
     26        1          -0.000286443   -0.000295624    0.000130701
     27        6           0.002420655    0.003536969    0.001011447
     28        1          -0.000523924    0.001311099    0.000199164
     29        6           0.003928975   -0.000247431   -0.000361463
     30        1          -0.000207849    0.000102032    0.000076218
     31        1          -0.000011026   -0.000035509    0.000024067
     32        1          -0.000124942    0.000050784    0.000044512
 -------------------------------------------------------------------
 Cartesian Forces:  Max     0.004547234 RMS     0.001688348

 GradGradGradGradGradGradGradGradGradGradGradGradGradGradGradGradGradGrad
 Berny optimization.
 FormGI is forming the generalized inverse of G from B-inverse, IUseBI=4.
 Internal  Forces:  Max     0.004429990 RMS     0.001239458
 Search for a local minimum.
 Step number   1 out of a maximum of  185
 All quantities printed in internal units (Hartrees-Bohrs-Radians)
 Mixed Optimization -- RFO/linear search
 Second derivative matrix not updated -- first step.
 ITU=  0
     Eigenvalues ---    0.00512   0.01191   0.01227   0.01361   0.01559
     Eigenvalues ---    0.01729   0.01816   0.01827   0.01976   0.02069
     Eigenvalues ---    0.02127   0.02186   0.02190   0.02201   0.02238
     Eigenvalues ---    0.02245   0.02251   0.02258   0.02264   0.02274
     Eigenvalues ---    0.02324   0.02546   0.02843   0.04520   0.04876
     Eigenvalues ---    0.05047   0.05047   0.05052   0.05052   0.06004
     Eigenvalues ---    0.07218   0.08841   0.12290   0.13004   0.15272
     Eigenvalues ---    0.15860   0.15932   0.15994   0.15997   0.15998
     Eigenvalues ---    0.15998   0.15998   0.15999   0.15999   0.16000
     Eigenvalues ---    0.16001   0.18596   0.21266   0.21737   0.21999
     Eigenvalues ---    0.22000   0.22329   0.23468   0.23676   0.25000
     Eigenvalues ---    0.25000   0.25057   0.27471   0.29521   0.30856
     Eigenvalues ---    0.34407   0.35205   0.35222   0.35262   0.35272
     Eigenvalues ---    0.35354   0.35493   0.35506   0.35510   0.35526
     Eigenvalues ---    0.35548   0.35657   0.35681   0.35783   0.35995
     Eigenvalues ---    0.36800   0.37603   0.38211   0.42430   0.42843
     Eigenvalues ---    0.46390   0.46876   0.47759   0.48217   0.52523
     Eigenvalues ---    0.53030   0.53953   0.56890   1.37168   1.37422
 RFO step:  Lambda=-9.64572986D-04 EMin= 5.11801335D-03
 Linear search not attempted -- first point.
 Iteration  1 RMS(Cart)=  0.04851340 RMS(Int)=  0.00053466
 Iteration  2 RMS(Cart)=  0.00102865 RMS(Int)=  0.00003074
 Iteration  3 RMS(Cart)=  0.00000038 RMS(Int)=  0.00003074
 Variable       Old X    -DE/DX   Delta X   Delta X   Delta X     New X
                                 (Linear)    (Quad)   (Total)
    R1        2.55620   0.00417   0.00000   0.00829   0.00831   2.56451
    R2        2.73710   0.00272   0.00000   0.00783   0.00783   2.74493
    R3        2.05236  -0.00008   0.00000  -0.00022  -0.00022   2.05214
    R4        2.72583   0.00258   0.00000   0.00687   0.00689   2.73272
    R5        2.05252  -0.00010   0.00000  -0.00029  -0.00029   2.05223
    R6        2.54067   0.00347   0.00000   0.00592   0.00592   2.54659
    R7        2.05343   0.00002   0.00000   0.00007   0.00007   2.05350
    R8        2.52919   0.00379   0.00000   0.00653   0.00653   2.53571
    R9        2.05315   0.00000   0.00000   0.00000   0.00000   2.05316
   R10        2.85243   0.00216   0.00000   0.00608   0.00604   2.85846
   R11        2.72996   0.00225   0.00000   0.00630   0.00633   2.73629
   R12        2.84138   0.00151   0.00000   0.00367   0.00367   2.84505
   R13        2.04862   0.00069   0.00000   0.00195   0.00195   2.05057
   R14        2.98859   0.00021   0.00000  -0.00016  -0.00019   2.98840
   R15        2.06648   0.00085   0.00000   0.00247   0.00247   2.06895
   R16        2.04621   0.00048   0.00000   0.00135   0.00135   2.04756
   R17        2.53243   0.00357   0.00000   0.00652   0.00656   2.53898
   R18        2.92169  -0.00082   0.00000  -0.00324  -0.00324   2.91845
   R19        2.77389  -0.00029   0.00000  -0.00082  -0.00082   2.77307
   R20        2.77722   0.00118   0.00000   0.00330   0.00330   2.78052
   R21        2.78403   0.00115   0.00000   0.00325   0.00325   2.78728
   R22        2.16560   0.00440   0.00000   0.00320   0.00320   2.16880
   R23        2.16626   0.00417   0.00000   0.00304   0.00304   2.16930
   R24        2.64576   0.00290   0.00000   0.00626   0.00627   2.65203
   R25        2.63995   0.00358   0.00000   0.00767   0.00768   2.64763
   R26        2.61467   0.00372   0.00000   0.00765   0.00765   2.62232
   R27        2.04794   0.00035   0.00000   0.00099   0.00099   2.04893
   R28        2.62112   0.00373   0.00000   0.00780   0.00780   2.62892
   R29        2.04584   0.00139   0.00000   0.00389   0.00389   2.04973
   R30        2.62599   0.00443   0.00000   0.00940   0.00940   2.63538
   R31        2.04882  -0.00020   0.00000  -0.00056  -0.00056   2.04826
   R32        2.62015   0.00412   0.00000   0.00866   0.00866   2.62881
   R33        2.04830  -0.00003   0.00000  -0.00008  -0.00008   2.04822
   R34        2.04855  -0.00013   0.00000  -0.00037  -0.00037   2.04818
    A1        2.19850  -0.00008   0.00000  -0.00146  -0.00151   2.19700
    A2        2.04781   0.00009   0.00000   0.00035   0.00033   2.04815
    A3        2.02877  -0.00005   0.00000  -0.00047  -0.00049   2.02828
    A4        2.19858  -0.00019   0.00000  -0.00273  -0.00275   2.19583
    A5        2.04874   0.00018   0.00000   0.00129   0.00127   2.05001
    A6        2.02979  -0.00002   0.00000   0.00017   0.00014   2.02993
    A7        2.17580  -0.00054   0.00000  -0.00583  -0.00588   2.16992
    A8        2.04074   0.00072   0.00000   0.00574   0.00576   2.04650
    A9        2.06662  -0.00018   0.00000   0.00011   0.00014   2.06675
   A10        2.20250  -0.00007   0.00000  -0.00302  -0.00307   2.19943
   A11        2.02571   0.00011   0.00000   0.00198   0.00200   2.02771
   A12        2.05481  -0.00003   0.00000   0.00112   0.00114   2.05595
   A13        2.14808   0.00013   0.00000  -0.00350  -0.00355   2.14452
   A14        2.23532  -0.00086   0.00000  -0.00104  -0.00096   2.23435
   A15        1.89893   0.00073   0.00000   0.00482   0.00478   1.90371
   A16        2.11187  -0.00060   0.00000  -0.00816  -0.00821   2.10366
   A17        2.08797  -0.00013   0.00000   0.00147   0.00149   2.08945
   A18        2.08291   0.00074   0.00000   0.00683   0.00685   2.08975
   A19        1.89924   0.00043   0.00000  -0.00384  -0.00389   1.89534
   A20        1.80602  -0.00061   0.00000  -0.00657  -0.00661   1.79941
   A21        1.91955   0.00020   0.00000   0.00322   0.00325   1.92280
   A22        2.03622  -0.00057   0.00000  -0.00114  -0.00117   2.03505
   A23        1.89719   0.00025   0.00000   0.00430   0.00430   1.90149
   A24        1.90261   0.00029   0.00000   0.00379   0.00382   1.90643
   A25        2.13973   0.00084   0.00000   0.00344   0.00344   2.14317
   A26        1.97689  -0.00188   0.00000  -0.00797  -0.00803   1.96887
   A27        2.16649   0.00104   0.00000   0.00466   0.00466   2.17115
   A28        1.90848   0.00056   0.00000   0.00170   0.00163   1.91011
   A29        2.22397   0.00289   0.00000   0.01178   0.01181   2.23578
   A30        2.15072  -0.00345   0.00000  -0.01347  -0.01343   2.13729
   A31        1.82042   0.00118   0.00000   0.00386   0.00373   1.82414
   A32        1.97802   0.00113   0.00000   0.01135   0.01135   1.98937
   A33        1.89530   0.00042   0.00000   0.00436   0.00444   1.89973
   A34        1.94441  -0.00155   0.00000  -0.00904  -0.00903   1.93538
   A35        1.93121  -0.00083   0.00000  -0.00625  -0.00624   1.92496
   A36        1.89364  -0.00031   0.00000  -0.00398  -0.00410   1.88954
   A37        2.08808   0.00017   0.00000   0.00076   0.00073   2.08882
   A38        2.13208  -0.00170   0.00000  -0.00669  -0.00671   2.12536
   A39        2.06303   0.00154   0.00000   0.00592   0.00592   2.06894
   A40        2.11122  -0.00106   0.00000  -0.00487  -0.00487   2.10634
   A41        2.08999   0.00041   0.00000   0.00178   0.00177   2.09175
   A42        2.08165   0.00065   0.00000   0.00324   0.00324   2.08489
   A43        2.10744  -0.00044   0.00000  -0.00195  -0.00195   2.10549
   A44        2.10763   0.00026   0.00000   0.00131   0.00130   2.10893
   A45        2.06796   0.00017   0.00000   0.00076   0.00075   2.06870
   A46        2.09755   0.00020   0.00000   0.00111   0.00111   2.09866
   A47        2.08851  -0.00024   0.00000  -0.00144  -0.00144   2.08706
   A48        2.09704   0.00005   0.00000   0.00034   0.00034   2.09738
   A49        2.10110  -0.00052   0.00000  -0.00202  -0.00202   2.09908
   A50        2.08432   0.00026   0.00000   0.00102   0.00102   2.08534
   A51        2.09776   0.00026   0.00000   0.00100   0.00100   2.09876
   A52        2.08586   0.00028   0.00000   0.00172   0.00171   2.08757
   A53        2.09854  -0.00009   0.00000  -0.00053  -0.00053   2.09802
   A54        2.09874  -0.00019   0.00000  -0.00120  -0.00120   2.09755
   A55        3.12513   0.00107   0.00000   0.02071   0.02071   3.14584
   A56        3.16601  -0.00054   0.00000  -0.01052  -0.01052   3.15549
   A57        3.15765   0.00068   0.00000   0.01330   0.01330   3.17094
   A58        3.16956   0.00058   0.00000   0.01131   0.01131   3.18087
    D1        0.02536   0.00003   0.00000   0.00090   0.00089   0.02625
    D2       -2.99309   0.00029   0.00000   0.01368   0.01365  -2.97944
    D3        3.02484  -0.00030   0.00000  -0.01296  -0.01295   3.01189
    D4        0.00638  -0.00004   0.00000  -0.00017  -0.00018   0.00620
    D5       -0.56373  -0.00038   0.00000  -0.01587  -0.01584  -0.57957
    D6        2.55823  -0.00021   0.00000  -0.01087  -0.01085   2.54739
    D7        2.71861  -0.00006   0.00000  -0.00221  -0.00220   2.71640
    D8       -0.44261   0.00011   0.00000   0.00280   0.00279  -0.43982
    D9        0.52369   0.00031   0.00000   0.01383   0.01379   0.53748
   D10       -2.60970   0.00005   0.00000   0.01076   0.01071  -2.59899
   D11       -2.73986   0.00006   0.00000   0.00124   0.00123  -2.73863
   D12        0.40994  -0.00020   0.00000  -0.00183  -0.00185   0.40809
   D13        0.12888  -0.00041   0.00000  -0.00657  -0.00660   0.12228
   D14       -3.06244  -0.00038   0.00000   0.00176   0.00171  -3.06073
   D15       -3.02103  -0.00014   0.00000  -0.00343  -0.00346  -3.02450
   D16        0.07084  -0.00011   0.00000   0.00489   0.00484   0.07568
   D17       -0.12814   0.00014   0.00000   0.00591   0.00591  -0.12223
   D18        3.04582   0.00012   0.00000   0.00072   0.00071   3.04653
   D19        3.03337  -0.00003   0.00000   0.00082   0.00083   3.03421
   D20       -0.07585  -0.00005   0.00000  -0.00436  -0.00437  -0.08022
   D21       -1.14041  -0.00083   0.00000  -0.01550  -0.01548  -1.15588
   D22        2.96640  -0.00003   0.00000  -0.00832  -0.00829   2.95811
   D23        0.93600  -0.00014   0.00000  -0.01069  -0.01068   0.92533
   D24        2.04253  -0.00081   0.00000  -0.02232  -0.02230   2.02023
   D25       -0.13385  -0.00001   0.00000  -0.01513  -0.01511  -0.14897
   D26       -2.16425  -0.00012   0.00000  -0.01751  -0.01750  -2.18175
   D27        0.09275   0.00002   0.00000   0.00451   0.00448   0.09723
   D28       -3.03656  -0.00002   0.00000  -0.00680  -0.00676  -3.04332
   D29       -3.09285   0.00003   0.00000   0.01170   0.01169  -3.08116
   D30        0.06103  -0.00000   0.00000   0.00039   0.00044   0.06147
   D31        1.13270   0.00067   0.00000   0.01394   0.01392   1.14662
   D32       -3.11663  -0.00016   0.00000   0.00197   0.00190  -3.11474
   D33       -0.95765   0.00002   0.00000   0.00977   0.00975  -0.94790
   D34       -2.04116   0.00067   0.00000   0.01901   0.01902  -2.02214
   D35       -0.00732  -0.00016   0.00000   0.00704   0.00700  -0.00031
   D36        2.15166   0.00002   0.00000   0.01485   0.01486   2.16652
   D37        0.15266   0.00008   0.00000   0.02275   0.02273   0.17539
   D38        2.27050  -0.00040   0.00000   0.02058   0.02054   2.29103
   D39       -1.90713   0.00023   0.00000   0.02593   0.02592  -1.88121
   D40       -1.93200   0.00030   0.00000   0.03286   0.03289  -1.89911
   D41        0.18583  -0.00019   0.00000   0.03070   0.03070   0.21654
   D42        2.29140   0.00045   0.00000   0.03604   0.03608   2.32748
   D43        2.19499   0.00014   0.00000   0.02478   0.02478   2.21977
[...]
 3130,0.00009466,0.00173865,-0.00022536,-0.00066114,0.00010218,0.000042
 26,0.00003103,-0.00020758,0.00000024,-0.00007243,-0.00000645,0.0000011
 2,-0.00001853,-0.00003943,-0.00002672,-0.00002661,0.00000414,0.0000106
 5,0.00002152,0.00000579,-0.00002875,-0.00001815,-0.00356286,-0.0003201
 3,0.00062478,0.00011217,0.00013953,0.00047286,0.00534491,-0.00229588,-
 0.00017760,-0.00005096,0.00062721,0.00018675,-0.00001525,0.00003626,-0
 .00000012,-0.00042161,-0.00009579,0.00020069,-0.00025447,0.00000595,-0
 .00027893,0.00041560,-0.00008647,-0.00006300,0.00017589,-0.00005199,0.
 00006974,-0.00000590,0.00002056,-0.00000450,-0.03579637,-0.07543409,-0
 .01864947,-0.05502921,0.03387162,0.01357538,-0.33995187,0.04406271,0.0
 3538367,0.07512386,0.01876215,0.00000538,-0.00065860,0.00082762,-0.000
 05905,0.69449917,0.00012044,-0.00012081,0.00007318,-0.00024590,0.00007
 019,-0.00004509,0.00033202,0.00016860,-0.00014273,0.00008589,0.0000164
 9,-0.00007840,-0.00082500,-0.00009518,0.00093504,-0.00001787,0.0000065
 6,0.00000638,-0.00019173,0.00002184,0.00005844,0.00001093,-0.00000488,
 0.00000734,0.00003290,0.00001049,0.00000500,0.00001009,0.00000279,0.00
 000657,-0.00001020,0.00001787,-0.00000635,0.00034540,0.00068748,-0.000
 17416,0.00007891,-0.00006406,-0.00038428,-0.00395185,-0.00430239,-0.00
 336849,0.00013967,-0.00042876,-0.00015472,-0.00000074,0.00000315,0.000
 00149,-0.00023990,-0.00000487,-0.00014414,-0.00017114,-0.00002460,0.00
 003156,0.00014318,0.00003557,0.00011926,0.00033834,0.00005214,-0.00003
 962,0.00000943,-0.00001631,0.00001159,-0.02191601,0.04180199,0.0122490
 8,0.03357862,-0.02254715,-0.00721466,-0.02858378,-0.12673491,-0.016203
 10,-0.03480493,-0.05374702,-0.01518205,0.00067865,-0.00002820,0.000347
 23,0.04733419,0.69145384,0.00006892,-0.00009631,0.00004019,-0.00016004
 ,0.00006937,0.00013082,0.00020525,0.00005710,-0.00010992,0.00007869,-0
 .00001067,-0.00004278,-0.00053711,-0.00018583,-0.00051699,-0.00003674,
 0.00003192,-0.00001809,0.00001616,0.00007299,0.00013092,0.00000290,-0.
 00000946,0.00000164,0.00000433,0.00001521,-0.00000036,-0.00000601,-0.0
 0000876,-0.00001775,-0.00000876,0.00002565,0.00001298,-0.00006498,0.00
 044325,-0.00021595,0.00003940,-0.00004716,0.00000513,-0.00124926,-0.00
 306535,0.00640936,-0.00000568,-0.00036778,-0.00027422,-0.00000441,-0.0
 0001449,-0.00000748,0.00026339,0.00007799,-0.00012334,-0.00015273,-0.0
 0015728,-0.00008448,-0.00027173,0.00010674,-0.00002377,0.00027186,0.00
 000433,-0.00009307,0.00000444,-0.00001228,0.00000574,-0.00233456,0.017
 21643,0.01226932,0.01397420,-0.00760947,-0.00942832,0.01424172,-0.0226
 3146,-0.07136039,-0.01609053,-0.01938931,0.00288178,0.00016341,0.00019
 944,-0.00080197,-0.03240022,0.15727413,0.18610092,0.00002210,-0.000017
 02,0.00000505,-0.00002704,0.00001995,0.00001954,0.00005397,0.00001280,
 -0.00002039,0.00004064,-0.00001324,0.00004776,-0.00003308,-0.00002474,
 0.00002857,0.00002402,0.00007400,-0.00010944,0.00000140,-0.00018011,0.
 00007542,0.00000891,-0.00000294,-0.00000161,0.00001455,0.00000259,-0.0
 0000323,0.00000311,0.00000699,-0.00001006,-0.00001812,-0.00000694,0.00
 000949,0.00006164,0.00011519,0.00000348,0.00005767,0.00003350,-0.00004
 138,0.00090929,0.00010718,-0.00029849,-0.00118048,-0.00003040,-0.00020
 215,0.00004190,0.00002338,0.00000893,-0.00180042,0.00013225,-0.0012011
 9,-0.00340013,0.00005953,0.00110635,-0.00027158,-0.00003120,0.00000059
 ,-0.00039223,0.00017119,0.00035938,0.00001935,-0.00000113,0.00000631,0
 .01155095,-0.01530511,-0.00526367,-0.00170122,-0.00351125,-0.00033586,
 -0.10574199,0.09799037,0.03518093,-0.00094738,-0.00060921,-0.00017005,
 0.00050040,-0.00087093,-0.00023754,-0.00868732,0.02897688,0.00980696,0
 .11595305,-0.00001219,-0.00000500,0.00000808,-0.00000311,0.00000104,0.
 00000048,-0.00004766,0.00004429,-0.00001330,0.00001788,-0.00001297,0.0
 0002563,0.00015287,-0.00007508,-0.00010646,0.00005210,0.00005610,-0.00
 000814,-0.00039889,-0.00006962,0.00007151,0.00000612,0.00000406,-0.000
 00165,0.00000001,0.00000346,-0.00000210,0.00001149,0.00001314,0.000006
 59,-0.00000080,0.00001037,-0.00001492,-0.00039810,0.00007950,0.0000400
 1,0.00006210,0.00004665,-0.00000795,0.00152953,-0.00027533,0.00097656,
 -0.00046387,0.00007774,-0.00006265,0.00002790,0.00002953,0.00000301,0.
 00022051,0.00025791,0.00002252,-0.00008408,0.00023162,-0.00014820,0.00
 046402,-0.00006224,0.00020759,0.00087119,-0.00015928,-0.00031393,0.000
 01648,-0.00000095,0.00000013,0.01187867,-0.01543453,-0.00637229,-0.004
 05332,-0.00172975,-0.00205209,0.09885472,-0.27292846,-0.07861607,-0.00
 066255,0.00016963,0.00033809,0.00064637,-0.00081764,-0.00041709,-0.001
 06049,0.00277003,-0.00044675,-0.10758714,0.28537813,0.00000787,0.00001
 248,-0.00000406,0.00001836,-0.00000626,-0.00002416,-0.00000229,0.00002
 366,0.00002484,-0.00000219,0.00003353,0.00000264,0.00005452,0.00008307
 ,0.00030506,-0.00000687,-0.00001844,0.00001088,-0.00012956,-0.00006803
 ,-0.00021531,0.00000330,-0.00000132,-0.00000460,0.00000618,-0.00000403
 ,-0.00000189,0.00000248,-0.00000172,-0.00002118,-0.00000684,-0.0000211
 8,-0.00002833,0.00021327,0.00010894,0.00004971,0.00002346,0.00001822,-
 0.00006579,-0.00011283,0.00085041,-0.00353771,-0.00011442,0.00011099,0
 .00040994,0.00005280,0.00003061,-0.00000301,-0.00174072,-0.00019983,-0
 .00047949,0.00176151,0.00014193,0.00005429,0.00034808,0.00000797,0.000
 00092,0.00015529,-0.00010510,-0.00034845,-0.00000037,0.00000308,0.0000
 0260,0.00254524,-0.00398825,0.00133358,-0.00043569,-0.00223618,0.00588
 298,0.03550981,-0.07903233,-0.06294656,-0.00013143,0.00033054,-0.00074
 672,0.00026759,-0.00022319,0.00034362,0.00075913,-0.00261511,0.0036518
 3,-0.03941956,0.08672182,0.05448657,-0.00019987,-0.00002917,0.00007464
 ,-0.00002317,0.00009045,-0.00021613,0.00022251,0.00027715,0.00004071,-
 0.00005404,0.00000015,0.00006903,-0.00063084,-0.00024965,-0.00007973,0
 .00002332,-0.00002430,0.00002783,0.00005460,-0.00001808,0.00000412,-0.
 00002153,0.00003306,0.00000393,-0.00006962,0.00001755,0.00003146,0.000
 01321,-0.00001211,-0.00000089,0.00001916,-0.00001254,-0.00001232,0.000
 80954,0.00117309,0.00023113,0.00004138,0.00012990,-0.00002272,-0.00236
 183,-0.00157557,0.00040122,-0.00008118,-0.00030116,-0.00013745,-0.0000
 3354,0.00001005,-0.00000344,0.00011303,-0.00004880,0.00014818,0.000110
 12,-0.00001480,-0.00009350,0.00000957,0.00003251,-0.00010678,-0.000107
 86,0.00001457,0.00010093,-0.00000644,0.00001274,-0.00003277,0.00259310
 ,-0.00501204,-0.00266733,-0.03443619,-0.02391686,-0.00423623,-0.017178
 06,0.03178608,0.01148031,-0.19764906,-0.12971107,-0.02692425,-0.005247
 15,0.00083888,0.00135844,-0.17432125,0.11342187,0.04243428,-0.00563466
 ,-0.00031083,0.00085293,0.75360969,-0.00002866,0.00012190,-0.00008395,
 0.00017484,-0.00009691,0.00006552,-0.00029274,-0.00004549,0.00008486,-
 0.00009874,-0.00002595,0.00009130,0.00045868,-0.00009893,-0.00054555,0
 .00009412,0.00001867,-0.00000612,-0.00009729,-0.00005038,-0.00005920,-
 0.00000267,-0.00000292,-0.00001439,-0.00002047,-0.00000928,-0.00001085
 ,0.00000056,-0.00000392,-0.00002628,0.00000570,-0.00003178,-0.00001149
 ,-0.00098963,0.00086180,0.00071403,0.00009588,0.00007201,0.00049148,-0
 .00120047,-0.00190832,0.00047018,-0.00000998,0.00038789,-0.00016942,0.
 00001209,0.00002951,-0.00000030,-0.00037481,0.00005298,0.00011027,-0.0
 0016105,0.00004763,-0.00020240,0.00027587,-0.00009914,-0.00009064,0.00
 013171,-0.00006188,0.00007146,0.00000141,0.00001525,-0.00000023,-0.004
 39730,-0.07420996,-0.01919323,-0.07855852,0.04332476,0.01646526,0.0873
 5574,0.03170154,-0.00010040,-0.05686252,-0.26022930,-0.05360231,0.0013
 8843,0.00219623,-0.00210532,0.04022982,-0.28330206,-0.06690396,-0.0008
 4743,0.00226440,-0.00151743,0.00416796,0.63022014,0.00000204,0.0000430
 0,-0.00003069,0.00005380,-0.00004323,0.00001288,-0.00011199,-0.0000484
 6,0.00001618,-0.00002851,-0.00001063,0.00002107,0.00023445,0.00002684,
 -0.00007369,0.00002928,0.00001739,0.00000042,-0.00004255,-0.00000847,-
 0.00000910,0.00000215,-0.00000337,-0.00000518,0.00000066,-0.00000423,-
 0.00000335,0.00000191,0.00000383,0.00000261,0.00000078,-0.00000962,-0.
 00000815,-0.00041103,0.00011798,0.00021905,0.00002217,0.00005001,0.000
 13299,-0.00040353,-0.00021917,-0.00090694,-0.00004752,0.00010190,0.000
 07254,0.00000560,0.00000793,0.00000207,-0.00012234,-0.00007129,0.00008
 732,-0.00010193,0.00008794,0.00004806,0.00022424,-0.00001486,-0.000002
 61,-0.00003231,-0.00003675,-0.00000473,0.00000136,0.00000291,0.0000030
 2,-0.00188141,-0.01945997,-0.01259907,-0.02017490,0.01299295,0.0125157
 7,0.02780647,0.00467661,0.00627858,-0.00472835,-0.04697992,-0.07794893
 ,0.00144497,-0.00191581,0.00697382,0.02075573,-0.07320587,-0.08742821,
 0.00085876,-0.00147694,0.00686238,-0.05069694,0.14400651,0.18450826,-0
 .00003261,0.00001041,0.00000287,0.00002037,-0.00001215,-0.00002593,-0.
 00004848,0.00001461,0.00001696,-0.00001845,0.00000796,-0.00001006,0.00
 001455,-0.00004624,-0.00001577,-0.00001178,-0.00001633,0.00003668,-0.0
 0000975,0.00009926,0.00000550,-0.00000562,0.00000520,0.00000108,-0.000
 01415,0.00000028,0.00000355,-0.00000073,-0.00000204,0.00001105,0.00000
 492,-0.00000056,-0.00000368,-0.00006416,0.00003971,-0.00002653,0.00001
 278,0.00000050,-0.00000529,0.00014914,0.00132719,0.00034746,-0.0004546
 8,-0.00001095,0.00003944,-0.00004040,-0.00001015,-0.00000667,-0.000006
 42,-0.00006519,0.00008369,-0.00001310,-0.00006154,-0.00012194,0.000007
 80,0.00003347,-0.00004844,0.00001379,0.00002194,0.00006228,-0.00000764
 ,0.00000108,-0.00000643,-0.00519908,-0.00086109,0.00091001,-0.00868668
 ,0.02771247,0.00963237,-0.00095479,-0.00067407,-0.00020466,-0.11227563
 ,0.10407593,0.03773809,0.00105578,-0.00022814,-0.00052052,-0.00145758,
 -0.00353700,-0.00028002,0.00010734,0.00013146,-0.00006977,0.01223164,-
 0.01649586,-0.00570276,0.11455380,0.00002915,-0.00000930,-0.00000223,-
 0.00001883,0.00000569,0.00002295,0.00003398,-0.00001778,-0.00001175,0.
 00001278,0.00000044,-0.00000619,-0.00002818,0.00004128,0.00000791,-0.0
 0000119,0.00000228,-0.00001162,-0.00000307,-0.00000594,0.00000694,0.00
 000332,-0.00000435,-0.00000028,0.00001013,-0.00000038,-0.00000257,-0.0
 0000144,0.00000031,-0.00000509,-0.00000329,0.00000099,0.00000176,0.000
 08170,-0.00005180,-0.00002024,-0.00001660,-0.00001275,0.00000444,-0.00
 022804,0.00007391,-0.00005685,-0.00001632,0.00005853,0.00002962,0.0000
 0791,-0.00000180,0.00000201,-0.00001802,0.00000110,-0.00001384,-0.0000
 1248,0.00001352,0.00002715,0.00001459,-0.00001105,0.00002048,0.0000040
 9,-0.00000423,-0.00001245,0.00000229,-0.00000189,0.00000450,-0.0005951
 9,0.00221231,-0.00157265,-0.00168183,0.00331450,-0.00002279,-0.0006783
 6,0.00012231,0.00031649,0.10450947,-0.26796469,-0.07852711,0.00039446,
 0.00015676,0.00140158,-0.00400017,-0.00188440,-0.00241696,0.00014417,-
 0.00012580,0.00029489,0.01281999,-0.01581821,-0.00713631,-0.11142109,0
 .28026534,0.00000822,-0.00000003,-0.00000081,-0.00000126,-0.00000036,0
 .00000604,-0.00000137,-0.00001286,-0.00000258,0.00000338,-0.00000088,-
 0.00000381,0.00001860,0.00000797,0.00000438,-0.00000434,0.00000312,0.0
 0000238,-0.00000472,-0.00001677,-0.00002451,0.00000128,-0.00000100,0.0
 0000005,0.00000385,-0.00000040,-0.00000100,-0.00000040,0.00000170,0.00
 000158,-0.00000050,0.00000185,0.00000031,0.00003542,-0.00002186,-0.000
 00638,0.00001739,-0.00002061,0.00000066,0.00008786,-0.00003540,0.00023
 513,0.00008604,-0.00000569,-0.00015317,0.00000983,0.00000422,0.0000000
 5,-0.00000066,0.00004508,-0.00002959,0.00000249,-0.00001802,0.00000262
 ,-0.00002013,0.00000223,-0.00001233,0.00002175,-0.00001063,-0.00002554
 ,0.00000041,-0.00000069,0.00000118,0.00064674,-0.00143368,0.00730588,0
 .00088209,-0.00270410,0.00299260,-0.00038166,0.00024287,-0.00066465,0.
 03755060,-0.07887772,-0.06631867,-0.00029140,0.00155736,-0.00410882,-0
 .00023333,-0.00251652,0.00648684,-0.00007206,0.00027157,-0.00101571,0.
 00328621,-0.00411875,0.00244409,-0.04140635,0.08655877,0.05658416,-0.0
 0004252,0.00001600,0.00000216,0.00002390,-0.00002176,-0.00003661,-0.00
 008634,0.00004906,0.00001859,-0.00002181,0.00000087,0.00000405,-0.0000
 0678,-0.00016039,0.00006131,0.00000573,-0.00001009,0.00002443,0.000010
 32,0.00002745,0.00000152,-0.00000584,0.00000702,0.00000055,-0.00001834
 ,0.00000069,0.00000346,0.00000286,-0.00000065,0.00001098,0.00000450,-0
 .00000199,-0.00000357,-0.00047299,0.00025857,0.00002696,0.00001710,-0.
 00000515,-0.00001688,-0.00010505,-0.00155095,-0.00033475,-0.00002012,-
 0.00005299,0.00000001,-0.00002328,-0.00000066,-0.00000283,0.00001751,-
 0.00004003,0.00006604,0.00001339,-0.00003741,-0.00008468,0.00000172,0.
 00002599,-0.00003724,0.00000853,0.00001675,0.00004083,-0.00000499,0.00
 000228,-0.00000715,-0.00492769,0.00143501,0.00139020,-0.00067721,0.000
 83021,0.00022190,-0.01257224,-0.02622995,-0.00628947,-0.00047555,0.002
 82634,0.00148321,0.00006429,-0.00009454,-0.00012209,-0.14807165,-0.129
 37260,-0.02856478,0.00101511,0.00026523,-0.00039294,0.01229105,0.01283
 524,0.00302509,0.00044197,0.00067644,0.00017196,0.15301789,-0.00002358
 ,0.00000623,0.00000244,0.00001516,-0.00000263,-0.00002050,-0.00001951,
 0.00001190,0.00000915,-0.00000921,0.00000027,0.00000517,0.00002848,-0.
 00002873,-0.00000596,0.00000022,-0.00000164,0.00000746,0.00000850,0.00
 001241,-0.00000208,-0.00000269,0.00000347,0.00000035,-0.00000744,0.000
 00048,0.00000231,0.00000124,0.00000024,0.00000420,0.00000259,-0.000001
 07,-0.00000117,0.00001157,0.00000869,0.00002335,0.00000283,0.00000698,
 -0.00000660,0.00026019,0.00014254,-0.00003500,-0.00003380,-0.00001867,
 0.00001284,-0.00000751,-0.00000050,-0.00000041,0.00002987,-0.00002564,
 0.00001893,0.00000358,-0.00000792,-0.00000439,-0.00001062,0.00001087,-
 0.00000910,-0.00002632,0.00000382,0.00001032,-0.00000163,0.00000137,-0
 .00000358,0.00103284,0.00209813,-0.00162160,0.00087067,-0.00009090,0.0
 0017586,0.00316104,0.00569155,0.00028015,0.00329157,-0.00253684,-0.003
 21069,-0.00010784,-0.00009825,0.00029474,-0.12983135,-0.24758664,-0.04
 967440,-0.00022810,0.00027989,0.00134244,-0.01670868,-0.01589960,-0.00
 440830,-0.00085958,-0.00089981,-0.00020413,0.13885391,0.25829586,0.000
 00179,-0.00000931,0.00000555,-0.00001224,0.00001066,0.00000604,0.00003
 441,0.00001126,0.00000575,0.00000429,0.00000336,-0.00000180,-0.0000682
 8,0.00001221,-0.00004671,-0.00000596,-0.00000388,-0.00000188,0.0000063
 2,-0.00000774,-0.00000066,-0.00000010,-0.00000034,0.00000006,-0.000000
 97,0.00000036,-0.00000021,-0.00000104,-0.00000276,-0.00000594,-0.00000
 014,-0.00000051,0.00000062,0.00005037,0.00001592,-0.00013894,0.0000012
 5,0.00001374,0.00000467,0.00008620,0.00004339,0.00035372,-0.00001285,0
 .00003094,-0.00000852,0.00000079,-0.00000060,0.00000026,-0.00003462,0.
 00003645,-0.00002443,0.00003094,-0.00001737,-0.00003479,-0.00002990,-0
 .00000721,-0.00000669,0.00001930,0.00000175,0.00000675,-0.00000042,-0.
 00000031,-0.00000028,0.00138811,-0.00180287,0.00672824,0.00019828,0.00
 019829,-0.00080462,0.00235501,0.00269572,0.00433068,0.00147092,-0.0031
 8474,0.00642928,-0.00012112,0.00032051,-0.00098896,-0.02862479,-0.0497
 8170,-0.05107719,-0.00055248,0.00134716,-0.00390588,-0.00548289,-0.006
 70234,0.00265407,-0.00026290,-0.00029652,-0.00007061,0.02990477,0.0556
 0450,0.04042405,-0.00001989,0.00000922,-0.00000048,0.00001575,-0.00000
 984,-0.00001534,-0.00003387,0.00000943,0.00000972,-0.00001248,0.000001
 32,0.00000050,0.00002761,-0.00001282,0.00000264,0.00000012,-0.00000725
 ,0.00001386,0.00001406,0.00002250,-0.00000229,-0.00000344,0.00000291,0
 .00000032,-0.00000846,-0.00000032,0.00000175,0.00000071,-0.00000154,0.
 00000456,0.00000268,-0.00000123,-0.00000094,-0.00008693,-0.00001449,0.
 00001382,0.00002612,0.00002765,-0.00000774,0.00015420,0.00001268,-0.00
 010165,-0.00003506,0.00001634,0.00001874,-0.00001307,-0.00000068,-0.00
 000195,0.00002128,-0.00002008,0.00002971,0.00001969,-0.00001060,-0.000
 03017,-0.00002139,0.00001233,-0.00001804,-0.00002875,0.00000767,0.0000
 2118,-0.00000365,0.00000131,-0.00000351,0.00048428,-0.00008054,-0.0001
 4055,0.00024067,-0.00321544,-0.00035915,0.00101860,0.00215959,0.001208
 08,-0.01188087,0.00327299,0.00236864,-0.00072298,0.00020845,0.00011522
 ,-0.00818167,-0.00176876,0.00059166,-0.00054977,-0.00012564,-0.0000163
 6,-0.34408562,0.01321009,0.03001662,0.00068784,-0.00002037,-0.00041594
 ,0.00059654,0.00030363,-0.00034206,0.36237774,-0.00000325,-0.00000209,
 0.00000429,-0.00000266,0.00000212,-0.00000101,-0.00000085,0.00000198,-
 0.00000082,0.00000568,-0.00000082,0.00000012,0.00003854,0.00001900,-0.
 00001129,0.00000069,0.00000828,-0.00000375,-0.00003951,0.00000021,0.00
 000682,0.00000037,0.00000066,0.00000012,-0.00000054,0.00000048,-0.0000
 0009,0.00000161,0.00000131,0.00000204,-0.00000103,0.00000079,-0.000001
 07,-0.00002309,0.00001480,0.00000817,0.00002130,0.00002811,-0.00003551
 ,-0.00006751,0.00005275,0.00036349,-0.00005096,-0.00002680,-0.00001551
 ,0.00000113,0.00000350,0.00000013,-0.00003875,0.00001300,-0.00001753,-
 0.00005447,-0.00000595,-0.00001322,0.00002692,0.00000148,0.00000398,0.
 00006052,-0.00000128,-0.00000557,0.00000163,-0.00000072,-0.00000050,-0
 .00002154,-0.00125808,-0.00009372,-0.00284241,-0.00331488,-0.00293935,
 0.00181085,-0.00378542,-0.00342307,-0.02607110,0.00617326,0.00294668,-
 0.00128285,0.00012880,0.00015660,0.02773058,0.00377321,-0.00254687,0.0
 0139692,-0.00002083,-0.00007620,0.01311966,-0.05942067,-0.00708261,0.0
 0082048,0.00054488,0.00130332,-0.00054787,0.00062414,0.00147196,-0.013
 98849,0.05644478,0.00001162,0.00001207,-0.00001548,0.00001415,-0.00000
 932,0.00001060,-0.00000710,-0.00000029,0.00000771,-0.00001542,-0.00000
 050,0.00000809,0.00000598,0.00003796,-0.00000386,0.00001486,-0.0000050
 7,0.00000783,-0.00002759,0.00000431,-0.00001022,0.00000068,-0.00000251
 ,-0.00000224,0.00000273,-0.00000187,-0.00000186,0.00000021,-0.00000254
 ,-0.00001063,0.00000112,-0.00000509,-0.00000302,0.00006545,-0.00015174
 ,0.00002703,0.00002696,0.00002556,0.00009327,0.00016963,0.00039029,-0.
 00107544,-0.00000393,0.00006330,0.00003250,0.00000028,0.00000356,-0.00
 000157,-0.00005123,-0.00002514,0.00001141,0.00000114,0.00002475,0.0000
 2027,0.00003530,-0.00000807,0.00001118,-0.00001515,0.00000558,0.000007
 21,-0.00000049,0.00000191,0.00000215,-0.00034031,-0.00022280,-0.000883
 57,-0.00022294,-0.00282179,0.00640394,0.00120176,-0.00333344,0.0064787
 2,-0.00634461,0.00014069,0.00469974,-0.00038015,0.00000635,-0.00006372
 ,0.00896658,0.00013071,0.00349681,0.00042163,0.00001979,-0.00007301,0.
 03016803,-0.00710631,-0.04383453,-0.00017333,0.00141595,-0.00362976,-0
 .00056501,0.00141371,-0.00383164,-0.03296086,0.00999999,0.03212208\\0.
 00001352,-0.00002159,0.00001028,-0.00001513,0.00000708,-0.00000831,0.0
 0002372,-0.00000140,0.00000219,0.00001452,0.00001324,-0.00001037,-0.00
 002896,-0.00000067,0.00001161,-0.00003077,-0.00001309,0.00000028,0.000
 03490,-0.00001038,0.00000056,-0.00000450,0.00000487,0.00000290,-0.0000
 0092,0.00000183,0.00000446,0.00000100,-0.00000157,-0.00000431,-0.00000
 416,0.00000013,0.00000134,0.00000882,0.00003393,-0.00000448,-0.0000043
 8,-0.00000438,-0.00000067,0.00000832,-0.00001674,0.00001100,-0.0000214
 0,0.00001786,-0.00000851,-0.00000282,0.00000123,-0.00000357,0.00001008
 ,0.00000635,-0.00001973,0.00002474,-0.00001308,0.00002248,-0.00000814,
 -0.00000658,0.00002050,-0.00000817,-0.00000054,-0.00002076,-0.00000326
 ,-0.00000465,0.00000099,0.00000099,-0.00000229,0.00000158,-0.00000196,
 0.00001245,0.00000143,0.00001302,-0.00000338,-0.00000026,0.00000539,0.
 00000737,-0.00000002,-0.00000219,-0.00000014,-0.00000171,-0.00001946,-
 0.00000029,-0.00000011,-0.00000395,-0.00000075,-0.00000065,-0.00000676
 ,-0.00001016,-0.00000381,0.00000061,-0.00000085,-0.00000123,0.00000445
 ,0.00000162,-0.00000173,0.00000287,0.00000459,-0.00000139\\\@


 "A LITTLE BIT GOES A LONG WAY"
 R.S. MULLIKEN AS QUOTED BY K. RUEDENBERG
 Job cpu time:       0 days  9 hours  0 minutes 30.3 seconds.
 Elapsed time:       0 days  2 hours 15 minutes  9.7 seconds.
 File lengths (MBytes):  RWF=    804 Int=      0 D2E=      0 Chk=     31 Scr=      1
 Normal termination of Gaussian 16 at Fri Feb 12 14:50:01 2021.
