Running on  hostname
Wed Dec 15 08:45:42 CET 2021

                                 *****************
                                 * O   R   C   A *
                                 *****************

                                            #,                                       
                                            ###                                      
                                            ####                                     
                                            #####                                    
                                            ######                                   
                                           ########,                                 
                                     ,,################,,,,,                         
                               ,,#################################,,                 
                          ,,##########################################,,             
                       ,#########################################, ''#####,          
                    ,#############################################,,   '####,        
                  ,##################################################,,,,####,       
                ,###########''''           ''''###############################       
              ,#####''   ,,,,##########,,,,          '''####'''          '####       
            ,##' ,,,,###########################,,,                        '##       
           ' ,,###''''                  '''############,,,                           
         ,,##''                                '''############,,,,        ,,,,,,###''
      ,#''                                            '''#######################'''  
     '                                                          ''''####''''         
             ,#######,   #######,   ,#######,      ##                                
            ,#'     '#,  ##    ##  ,#'     '#,    #''#        ######   ,####,        
            ##       ##  ##   ,#'  ##            #'  '#       #        #'  '#        
            ##       ##  #######   ##           ,######,      #####,   #    #        
            '#,     ,#'  ##    ##  '#,     ,#' ,#      #,         ##   #,  ,#        
             '#######'   ##     ##  '#######'  #'      '#     #####' # '####'        



                  #######################################################
                  #                        -***-                        #
                  #          Department of theory and spectroscopy      #
                  #    Directorship and core code : Frank Neese         #
                  #        Max Planck Institute fuer Kohlenforschung    #
                  #                Kaiser Wilhelm Platz 1               #
                  #                 D-45470 Muelheim/Ruhr               #
                  #                      Germany                        #
                  #                                                     #
                  #                  All rights reserved                #
                  #                        -***-                        #
                  #######################################################


                         Program Version 5.0.1 -  RELEASE  -


 With contributions from (in alphabetic order):
   Daniel Aravena         : Magnetic Suceptibility
   Michael Atanasov       : Ab Initio Ligand Field Theory (pilot matlab implementation)
   Alexander A. Auer      : GIAO ZORA, VPT2 properties, NMR spectrum
   Ute Becker             : Parallelization
   Giovanni Bistoni       : ED, misc. LED, open-shell LED, HFLD
   Martin Brehm           : Molecular dynamics
   Dmytro Bykov           : SCF Hessian
   Vijay G. Chilkuri      : MRCI spin determinant printing, contributions to CSF-ICE
   Dipayan Datta          : RHF DLPNO-CCSD density
   Achintya Kumar Dutta   : EOM-CC, STEOM-CC
   Dmitry Ganyushin       : Spin-Orbit,Spin-Spin,Magnetic field MRCI
   Miquel Garcia          : C-PCM and meta-GGA Hessian, CC/C-PCM, Gaussian charge scheme
   Yang Guo               : DLPNO-NEVPT2, F12-NEVPT2, CIM, IAO-localization
   Andreas Hansen         : Spin unrestricted coupled pair/coupled cluster methods
   Benjamin Helmich-Paris : MC-RPA, TRAH-SCF, COSX integrals
   Lee Huntington         : MR-EOM, pCC
   Robert Izsak           : Overlap fitted RIJCOSX, COSX-SCS-MP3, EOM
   Marcus Kettner         : VPT2
   Christian Kollmar      : KDIIS, OOCD, Brueckner-CCSD(T), CCSD density, CASPT2, CASPT2-K
   Simone Kossmann        : Meta GGA functionals, TD-DFT gradient, OOMP2, MP2 Hessian
   Martin Krupicka        : Initial AUTO-CI
   Lucas Lang             : DCDCAS
   Marvin Lechner         : AUTO-CI (C++ implementation), FIC-MRCC
   Dagmar Lenk            : GEPOL surface, SMD
   Dimitrios Liakos       : Extrapolation schemes; Compound Job, initial MDCI parallelization
   Dimitrios Manganas     : Further ROCIS development; embedding schemes
   Dimitrios Pantazis     : SARC Basis sets
   Anastasios Papadopoulos: AUTO-CI, single reference methods and gradients
   Taras Petrenko         : DFT Hessian,TD-DFT gradient, ASA, ECA, R-Raman, ABS, FL, XAS/XES, NRVS
   Peter Pinski           : DLPNO-MP2, DLPNO-MP2 Gradient
   Christoph Reimann      : Effective Core Potentials
   Marius Retegan         : Local ZFS, SOC
   Christoph Riplinger    : Optimizer, TS searches, QM/MM, DLPNO-CCSD(T), (RO)-DLPNO pert. Triples
   Tobias Risthaus        : Range-separated hybrids, TD-DFT gradient, RPA, STAB
   Michael Roemelt        : Original ROCIS implementation
   Masaaki Saitow         : Open-shell DLPNO-CCSD energy and density
   Barbara Sandhoefer     : DKH picture change effects
   Avijit Sen             : IP-ROCIS
   Kantharuban Sivalingam : CASSCF convergence, NEVPT2, FIC-MRCI
   Bernardo de Souza      : ESD, SOC TD-DFT
   Georgi Stoychev        : AutoAux, RI-MP2 NMR, DLPNO-MP2 response
   Willem Van den Heuvel  : Paramagnetic NMR
   Boris Wezisla          : Elementary symmetry handling
   Frank Wennmohs         : Technical directorship


 We gratefully acknowledge several colleagues who have allowed us to
 interface, adapt or use parts of their codes:
   Stefan Grimme, W. Hujo, H. Kruse, P. Pracht,  : VdW corrections, initial TS optimization,
                  C. Bannwarth, S. Ehlert          DFT functionals, gCP, sTDA/sTD-DF
   Ed Valeev, F. Pavosevic, A. Kumar             : LibInt (2-el integral package), F12 methods
   Garnet Chan, S. Sharma, J. Yang, R. Olivares  : DMRG
   Ulf Ekstrom                                   : XCFun DFT Library
   Mihaly Kallay                                 : mrcc  (arbitrary order and MRCC methods)
   Jiri Pittner, Ondrej Demel                    : Mk-CCSD
   Frank Weinhold                                : gennbo (NPA and NBO analysis)
   Christopher J. Cramer and Donald G. Truhlar   : smd solvation model
   Lars Goerigk                                  : TD-DFT with DH, B97 family of functionals
   V. Asgeirsson, H. Jonsson                     : NEB implementation
   FAccTs GmbH                                   : IRC, NEB, NEB-TS, DLPNO-Multilevel, CI-OPT
                                                   MM, QMMM, 2- and 3-layer-ONIOM, Crystal-QMMM,
                                                   LR-CPCM, SF, NACMEs, symmetry and pop. for TD-DFT,
                                                   nearIR, NL-DFT gradient (VV10), updates on ESD,
                                                   ML-optimized integration grids
   S Lehtola, MJT Oliveira, MAL Marques          : LibXC Library
   Liviu Ungur et al                             : ANISO software


 Your calculation uses the libint2 library for the computation of 2-el integrals
 For citations please refer to: http://libint.valeyev.net

 Your ORCA version has been built with support for libXC version: 5.1.0
 For citations please refer to: https://tddft.org/programs/libxc/

 This ORCA versions uses:
   CBLAS   interface :  Fast vector & matrix operations
   LAPACKE interface :  Fast linear algebra routines
   SCALAPACK package :  Parallel linear algebra routines
   Shared memory     :  Shared parallel matrices
   BLAS/LAPACK       :  OpenBLAS 0.3.15  USE64BITINT DYNAMIC_ARCH NO_AFFINITY Haswell SINGLE_THREADED
        Core in use  :  Haswell
   Copyright (c) 2011-2014, The OpenBLAS Project


================================================================================

----- Orbital basis set information -----
Your calculation utilizes the basis: cc-pVDZ 
       H, B-Ne : Obtained from the ccRepo (grant-hill.group.shef.ac.uk/ccrepo) Feb. 2017
                 T. H. Dunning, Jr., J. Chem. Phys. 90, 1007 (1989)
            He : Obtained from the ccRepo (grant-hill.group.shef.ac.uk/ccrepo) Feb. 2017
                 D. E. Woon, T. H. Dunning, Jr., J. Chem. Phys. 100, 2975 (1994)
  Li-Be, Na-Mg : Obtained from the ccRepo (grant-hill.group.shef.ac.uk/ccrepo) Feb. 2017
                 B. P. Prascher, D. E. Woon, K. A. Peterson, T. H. Dunning, Jr., A. K. Wilson, Theor. Chem. Acc. 128, 69 (2011)
         Al-Ar : Obtained from the ccRepo (grant-hill.group.shef.ac.uk/ccrepo) Feb. 2017
                 D. E. Woon, T. H. Dunning, Jr., J. Chem. Phys. 98, 1358 (1993)
            Ca : Obtained from the Peterson Research Group Website (tyr0.chem.wsu.edu/~kipeters) Feb. 2017
                 J. Koput, K. A. Peterson, J. Phys. Chem. 106, 9595 (2002)
         Sc-Zn : Obtained from the ccRepo (grant-hill.group.shef.ac.uk/ccrepo) Feb. 2017
                 N. B. Balabanov, K. A. Peterson, J. Chem. Phys. 123, 064107 (2005)
                 N. B. Balabanov, K. A. Peterson, J. Chem. Phys. 125, 074110 (2006)
         Ga-Kr : Obtained from the ccRepo (grant-hill.group.shef.ac.uk/ccrepo) Feb. 2017
                 A. K. Wilson, D. E. Woon, K. A. Peterson, T. H. Dunning, Jr., J. Chem. Phys. 110, 7667 (1999)

----- AuxJ basis set information -----
Your calculation utilizes the auxiliary basis: def2/J
   F. Weigend, Phys. Chem. Chem. Phys. 8, 1057 (2006).

================================================================================
                                        WARNINGS
                       Please study these warnings very carefully!
================================================================================

INFO   : Checking CIS options ...

WARNING: CIS/ROCIS methods need fully converged wavefunctions
  ===> : Setting SCFConvForced true
         You can overwrite this default with %scf ConvForced false 


INFO   : the flag for use of the SHARK integral package has been found!

================================================================================
                                       INPUT FILE
================================================================================
NAME = Methane_orca_exci.inp
|  1> ! PAL2
|  2> ! B3LYP cc-pVDZ VeryTightSCF
|  3> % TDDFT NROOTS    10
|  4>         TRIPLETS TRUE
|  5> end
|  6> %maxcore 4000
|  7> * xyz 0 1
|  8> C  1.018250  0.093150  0.031470
|  9> H  2.110450  0.093150  0.031470
| 10> H  0.654190  -0.602800  0.790430
| 11> H  0.654180  -0.216150  -0.950710
| 12> H  0.654180  1.098400  0.254700
| 13> *
| 14> 
| 15> 
| 16>                          ****END OF INPUT****
================================================================================

                       ****************************
                       * Single Point Calculation *
                       ****************************

---------------------------------
CARTESIAN COORDINATES (ANGSTROEM)
---------------------------------
  C      1.018250    0.093150    0.031470
  H      2.110450    0.093150    0.031470
  H      0.654190   -0.602800    0.790430
  H      0.654180   -0.216150   -0.950710
  H      0.654180    1.098400    0.254700

----------------------------
CARTESIAN COORDINATES (A.U.)
----------------------------
  NO LB      ZA    FRAG     MASS         X           Y           Z
   0 C     6.0000    0    12.011    1.924214    0.176028    0.059470
   1 H     1.0000    0     1.008    3.988173    0.176028    0.059470
   2 H     1.0000    0     1.008    1.236240   -1.139127    1.493696
   3 H     1.0000    0     1.008    1.236221   -0.408464   -1.796582
   4 H     1.0000    0     1.008    1.236221    2.075675    0.481313

--------------------------------
INTERNAL COORDINATES (ANGSTROEM)
--------------------------------
 C      0   0   0     0.000000000000     0.00000000     0.00000000
 H      1   0   0     1.092200000000     0.00000000     0.00000000
 H      1   2   0     1.092202530532   109.47080276     0.00000000
 H      1   2   3     1.092195498663   109.47148959   239.99998027
 H      1   2   3     1.092202435586   109.47136093   119.99997672

---------------------------
INTERNAL COORDINATES (A.U.)
---------------------------
 C      0   0   0     0.000000000000     0.00000000     0.00000000
 H      1   0   0     2.063958883469     0.00000000     0.00000000
 H      1   2   0     2.063963665481   109.47080276     0.00000000
 H      1   2   3     2.063950377175   109.47148959   239.99998027
 H      1   2   3     2.063963486059   109.47136093   119.99997672

---------------------
BASIS SET INFORMATION
---------------------
There are 2 groups of distinct atoms

 Group   1 Type C   : 17s4p1d contracted to 3s2p1d pattern {881/31/1}
 Group   2 Type H   : 4s1p contracted to 2s1p pattern {31/1}

Atom   0C    basis set group =>   1
Atom   1H    basis set group =>   2
Atom   2H    basis set group =>   2
Atom   3H    basis set group =>   2
Atom   4H    basis set group =>   2
---------------------------------
AUXILIARY/J BASIS SET INFORMATION
---------------------------------
There are 2 groups of distinct atoms

 Group   1 Type C   : 12s5p4d2f1g contracted to 6s4p3d1f1g pattern {711111/2111/211/2/1}
 Group   2 Type H   : 5s2p1d contracted to 3s1p1d pattern {311/2/1}

Atom   0C    basis set group =>   1
Atom   1H    basis set group =>   2
Atom   2H    basis set group =>   2
Atom   3H    basis set group =>   2
Atom   4H    basis set group =>   2


           ************************************************************
           *        Program running with 2 parallel MPI-processes     *
           *              working on a common directory               *
           ************************************************************
------------------------------------------------------------------------------
                           ORCA GTO INTEGRAL CALCULATION
                           -- RI-GTO INTEGRALS CHOSEN --
------------------------------------------------------------------------------
------------------------------------------------------------------------------
                   ___                                                        
                  /   \      - P O W E R E D   B Y -                         
                 /     \                                                     
                 |  |  |   _    _      __       _____    __    __             
                 |  |  |  | |  | |    /  \     |  _  \  |  |  /  |          
                  \  \/   | |  | |   /    \    | | | |  |  | /  /          
                 / \  \   | |__| |  /  /\  \   | |_| |  |  |/  /          
                |  |  |   |  __  | /  /__\  \  |    /   |      \           
                |  |  |   | |  | | |   __   |  |    \   |  |\   \          
                \     /   | |  | | |  |  |  |  | |\  \  |  | \   \       
                 \___/    |_|  |_| |__|  |__|  |_| \__\ |__|  \__/        
                                                                              
                      - O R C A' S   B I G   F R I E N D -                    
                                      &                                       
                       - I N T E G R A L  F E E D E R -                       
                                                                              
 v1 FN, 2020, v2 2021                                                         
------------------------------------------------------------------------------


Reading SHARK input file Methane_orca_exci.SHARKINP.tmp ... ok
----------------------
SHARK INTEGRAL PACKAGE
----------------------

Number of atoms                             ...      5
Number of basis functions                   ...     34
Number of shells                            ...     18
Maximum angular momentum                    ...      2
Integral batch strategy                     ... SHARK/LIBINT Hybrid
RI-J (if used) integral strategy            ... SPLIT-RIJ (Revised 2003 algorithm where possible)
Printlevel                                  ...      1
Contraction scheme used                     ... SEGMENTED contraction
Coulomb Range Separation                    ... NOT USED
Exchange Range Separation                   ... NOT USED
Finite Nucleus Model                        ... NOT USED
Auxiliary Coulomb fitting basis             ... AVAILABLE
   # of basis functions in Aux-J            ...     93
   # of shells in Aux-J                     ...     35
   Maximum angular momentum in Aux-J        ...      4
Auxiliary J/K fitting basis                 ... NOT available
Auxiliary Correlation fitting basis         ... NOT available
Auxiliary 'external' fitting basis          ... NOT available
Integral threshold                          ...     1.000000e-12
Primitive cut-off                           ...     1.000000e-14
Primitive pair pre-selection threshold      ...     1.000000e-14

Calculating pre-screening integrals         ... done (  0.0 sec) Dimension = 18
Organizing shell pair data                  ... done (  0.0 sec)
Shell pair information
Total number of shell pairs                 ...       171
Shell pairs after pre-screening             ...       171
Total number of primitive shell pairs       ...       974
Primitive shell pairs kept                  ...       928
          la=0 lb=0:     66 shell pairs
          la=1 lb=0:     66 shell pairs
          la=1 lb=1:     21 shell pairs
          la=2 lb=0:     11 shell pairs
          la=2 lb=1:      6 shell pairs
          la=2 lb=2:      1 shell pairs

Calculating one electron integrals          ... done (  0.0 sec)
Calculating RI/J V-Matrix + Cholesky decomp.... done (  0.0 sec)
Calculating Nuclear repulsion               ... done (  0.0 sec) ENN=     13.408325084307 Eh

SHARK setup successfully completed in   0.1 seconds

Maximum memory used throughout the entire GTOINT-calculation: 13.0 MB


           ************************************************************
           *        Program running with 2 parallel MPI-processes     *
           *              working on a common directory               *
           ************************************************************
-------------------------------------------------------------------------------
                                 ORCA SCF
-------------------------------------------------------------------------------

------------
SCF SETTINGS
------------
Hamiltonian:
 Density Functional     Method          .... DFT(GTOs)
 Exchange Functional    Exchange        .... B88
   X-Alpha parameter    XAlpha          ....  0.666667
   Becke's b parameter  XBeta           ....  0.004200
 Correlation Functional Correlation     .... LYP
 LDA part of GGA corr.  LDAOpt          .... VWN-5
 Gradients option       PostSCFGGA      .... off
 Hybrid DFT is turned on
   Fraction HF Exchange ScalHFX         ....  0.200000
   Scaling of DF-GGA-X  ScalDFX         ....  0.720000
   Scaling of DF-GGA-C  ScalDFC         ....  0.810000
   Scaling of DF-LDA-C  ScalLDAC        ....  1.000000
   Perturbative correction              ....  0.000000
   Density functional embedding theory  .... OFF
   NL short-range parameter             ....  4.800000
 RI-approximation to the Coulomb term is turned on
   Number of AuxJ basis functions       .... 93
   RIJ-COSX (HFX calculated with COS-X)).... on


General Settings:
 Integral files         IntName         .... Methane_orca_exci
 Hartree-Fock type      HFTyp           .... RHF
 Total Charge           Charge          ....    0
 Multiplicity           Mult            ....    1
 Number of Electrons    NEL             ....   10
 Basis Dimension        Dim             ....   34
 Nuclear Repulsion      ENuc            ....     13.4083250843 Eh

Convergence Acceleration:
 DIIS                   CNVDIIS         .... on
   Start iteration      DIISMaxIt       ....    12
   Startup error        DIISStart       ....  0.200000
   # of expansion vecs  DIISMaxEq       ....     5
   Bias factor          DIISBfac        ....   1.050
   Max. coefficient     DIISMaxC        ....  10.000
 Trust-Rad. Augm. Hess. CNVTRAH         .... auto
   Auto Start mean grad. ratio tolernc. ....  1.125000
   Auto Start start iteration           ....    20
   Auto Start num. interpolation iter.  ....    10
   Max. Number of Micro iterations      ....    16
   Max. Number of Macro iterations      .... Maxiter - #DIIS iter
   Number of Davidson start vectors     ....     2
   Converg. threshold I  (grad. norm)   ....   2.000e-06
   Converg. threshold II (energy diff.) ....   1.000e-09
   Grad. Scal. Fac. for Micro threshold ....   0.100
   Minimum threshold for Micro iter.    ....   0.010
   NR start threshold (gradient norm)   ....   0.001
   Initial trust radius                 ....   0.400
   Minimum AH scaling param. (alpha)    ....   1.000
   Maximum AH scaling param. (alpha)    .... 1000.000
   Orbital update algorithm             .... Taylor
   White noise on init. David. guess    .... on
   Maximum white noise                  ....   0.010
   Quad. conv. algorithm                .... NR
 SOSCF                  CNVSOSCF        .... on
   Start iteration      SOSCFMaxIt      ....   150
   Startup grad/error   SOSCFStart      ....  0.003300
 Level Shifting         CNVShift        .... on
   Level shift para.    LevelShift      ....    0.2500
   Turn off err/grad.   ShiftErr        ....    0.0010
 Zerner damping         CNVZerner       .... off
 Static damping         CNVDamp         .... on
   Fraction old density DampFac         ....    0.7000
   Max. Damping (<1)    DampMax         ....    0.9800
   Min. Damping (>=0)   DampMin         ....    0.0000
   Turn off err/grad.   DampErr         ....    0.1000
 Fernandez-Rico         CNVRico         .... off

SCF Procedure:
 Maximum # iterations   MaxIter         ....   125
 SCF integral mode      SCFMode         .... Direct
   Integral package                     .... SHARK and LIBINT hybrid scheme
 Reset frequency        DirectResetFreq ....    20
 Integral Threshold     Thresh          ....  1.000e-12 Eh
 Primitive CutOff       TCut            ....  1.000e-14 Eh

Convergence Tolerance:
 Convergence Check Mode ConvCheckMode   .... Total+1el-Energy
 Convergence forced     ConvForced      .... 1
 Energy Change          TolE            ....  1.000e-09 Eh
 1-El. energy change                    ....  1.000e-06 Eh
 Orbital Gradient       TolG            ....  2.000e-06
 Orbital Rotation angle TolX            ....  2.000e-06
 DIIS Error             TolErr          ....  1.000e-08


Diagonalization of the overlap matrix:
Smallest eigenvalue                        ... 2.321e-02
Time for diagonalization                   ...    0.001 sec
Threshold for overlap eigenvalues          ... 1.000e-08
Number of eigenvalues below threshold      ... 0
Time for construction of square roots      ...    0.001 sec
Total time needed                          ...    0.002 sec

Time for model grid setup =    0.014 sec

------------------------------
INITIAL GUESS: MODEL POTENTIAL
------------------------------
Loading Hartree-Fock densities                     ... done
Calculating cut-offs                               ... done
Initializing the effective Hamiltonian             ... done
Setting up the integral package (SHARK)            ... done
Starting the Coulomb interaction                   ... done (   0.0 sec)
Reading the grid                                   ... done
Mapping shells                                     ... done
Starting the XC term evaluation                    ... done (   0.0 sec)
  promolecular density results
     # of electrons  =      9.998741243
     EX              =     -6.306178839
     EC              =     -0.288446704
     EX+EC           =     -6.594625543
Transforming the Hamiltonian                       ... done (   0.0 sec)
Diagonalizing the Hamiltonian                      ... done (   0.0 sec)
Back transforming the eigenvectors                 ... done (   0.0 sec)
Now organizing SCF variables                       ... done
                      ------------------
                      INITIAL GUESS DONE (   0.0 sec)
                      ------------------
-------------------
DFT GRID GENERATION
-------------------

General Integration Accuracy     IntAcc      ... 4.388
Radial Grid Type                 RadialGrid  ... OptM3 with GC (2021)
Angular Grid (max. ang.)         AngularGrid ... 4 (Lebedev-302)
Angular grid pruning method      GridPruning ... 4 (adaptive)
Weight generation scheme         WeightScheme... Becke
Basis function cutoff            BFCut       ... 1.0000e-12
Integration weight cutoff        WCut        ... 1.0000e-14
Angular grids for H and He will be reduced by one unit
Partially contracted basis set               ... off
Rotationally invariant grid construction     ... off

Total number of grid points                  ...    19233
Total number of batches                      ...      302
Average number of points per batch           ...       63
Average number of grid points per atom       ...     3847
Time for grid setup =    0.082 sec

--------------------
COSX GRID GENERATION
--------------------

GRIDX 1
-------
General Integration Accuracy     IntAcc      ... 3.816
Radial Grid Type                 RadialGrid  ... OptM3 with GC (2021)
Angular Grid (max. ang.)         AngularGrid ... 1 (Lebedev-50)
Angular grid pruning method      GridPruning ... 4 (adaptive)
Weight generation scheme         WeightScheme... Becke
Basis function cutoff            BFCut       ... 1.0000e-12
Integration weight cutoff        WCut        ... 1.0000e-14
Angular grids for H and He will be reduced by one unit
Partially contracted basis set               ... on
Rotationally invariant grid construction     ... off

Total number of grid points                  ...     2517
Total number of batches                      ...       42
Average number of points per batch           ...       59
Average number of grid points per atom       ...      503
UseSFitting                                  ... on

GRIDX 2
-------
General Integration Accuracy     IntAcc      ... 4.020
Radial Grid Type                 RadialGrid  ... OptM3 with GC (2021)
Angular Grid (max. ang.)         AngularGrid ... 2 (Lebedev-110)
Angular grid pruning method      GridPruning ... 4 (adaptive)
Weight generation scheme         WeightScheme... Becke
Basis function cutoff            BFCut       ... 1.0000e-12
Integration weight cutoff        WCut        ... 1.0000e-14
Angular grids for H and He will be reduced by one unit
Partially contracted basis set               ... on
Rotationally invariant grid construction     ... off

Total number of grid points                  ...     5062
Total number of batches                      ...       80
Average number of points per batch           ...       63
Average number of grid points per atom       ...     1012
UseSFitting                                  ... on

GRIDX 3
-------
General Integration Accuracy     IntAcc      ... 4.338
Radial Grid Type                 RadialGrid  ... OptM3 with GC (2021)
Angular Grid (max. ang.)         AngularGrid ... 3 (Lebedev-194)
Angular grid pruning method      GridPruning ... 4 (adaptive)
Weight generation scheme         WeightScheme... Becke
Basis function cutoff            BFCut       ... 1.0000e-12
Integration weight cutoff        WCut        ... 1.0000e-14
Angular grids for H and He will be reduced by one unit
Partially contracted basis set               ... on
Rotationally invariant grid construction     ... off

Total number of grid points                  ...    11162
Total number of batches                      ...      177
Average number of points per batch           ...       63
Average number of grid points per atom       ...     2232
UseSFitting                                  ... on

Time for X-Grid setup             =    0.070 sec

 re-compute Schwartz prescreening matrix in partically contracted basis (1) ...done (   0.085 sec)
--------------
SCF ITERATIONS
--------------
ITER       Energy         Delta-E        Max-DP      RMS-DP      [F,P]     Damp
               ***  Starting incremental Fock matrix formation  ***
  0    -40.4042829180   0.000000000000 0.06419229  0.00461127  0.2018599 0.7000
  1    -40.4400936101  -0.035810692148 0.04313272  0.00341237  0.1051017 0.7000
                               ***Turning on DIIS***
  2    -40.4546214948  -0.014527884707 0.06536811  0.00583830  0.0390482 0.0000
  3    -40.4733622151  -0.018740720278 0.02834669  0.00216489  0.0593838 0.0000
  4    -40.4798045956  -0.006442380492 0.00695924  0.00071476  0.0154436 0.0000
  5    -40.4802677046  -0.000463108956 0.00221198  0.00025658  0.0039541 0.0000
                      *** Initiating the SOSCF procedure ***
                           *** Shutting down DIIS ***
                      *** Re-Reading the Fockian *** 
                      *** Removing any level shift *** 
ITER      Energy       Delta-E        Grad      Rot      Max-DP    RMS-DP
  6    -40.48030228  -0.0000345783  0.000384  0.000384  0.001162  0.000136
               *** Restarting incremental Fock matrix formation ***
  7    -40.48030901  -0.0000067266  0.000055  0.000068  0.000130  0.000011
  8    -40.48030901  -0.0000000036  0.000039  0.000038  0.000072  0.000005
  9    -40.48030903  -0.0000000170  0.000004  0.000005  0.000008  0.000001
                 **** Energy Check signals convergence ****
              ***Rediagonalizing the Fockian in SOSCF/NRSCF***

               *****************************************************
               *                     SUCCESS                       *
               *           SCF CONVERGED AFTER  10 CYCLES          *
               *****************************************************

Old exchange energy                            =     -1.316401746 Eh
New exchange energy                            =     -1.316398156 Eh
Exchange energy change after final integration =      0.000003590 Eh
Total energy after final integration           =    -40.480305441 Eh
Final COS-X integration done in                =     0.113 sec

----------------
TOTAL SCF ENERGY
----------------

Total Energy       :          -40.48030544 Eh           -1101.52511 eV

Components:
Nuclear Repulsion  :           13.40832508 Eh             364.85907 eV
Electronic Energy  :          -53.88863053 Eh           -1466.38419 eV
One Electron Energy:          -79.76126294 Eh           -2170.41431 eV
Two Electron Energy:           25.87263241 Eh             704.03012 eV
Max COSX asymmetry :            0.00000063 Eh               0.00002 eV

Virial components:
Potential Energy   :          -80.57999944 Eh           -2192.69326 eV
Kinetic Energy     :           40.09969400 Eh            1091.16815 eV
Virial Ratio       :            2.00949163


DFT components:
N(Alpha)           :        5.000000626417 electrons
N(Beta)            :        5.000000626417 electrons
N(Total)           :       10.000001252833 electrons
E(X)               :       -5.199745139993 Eh       
E(C)               :       -0.351089623802 Eh       
E(XC)              :       -5.550834763795 Eh       
DFET-embed. en.    :        0.000000000000 Eh       

---------------
SCF CONVERGENCE
---------------

  Last Energy change         ...   -6.4358e-10  Tolerance :   1.0000e-09
  Last MAX-Density change    ...    1.7764e-15  Tolerance :   1.0000e-08
  Last RMS-Density change    ...    5.7546e-17  Tolerance :   1.0000e-09
  Last Orbital Gradient      ...    2.0097e-06  Tolerance :   2.0000e-06
  Last Orbital Rotation      ...    1.4486e-06  Tolerance :   2.0000e-06

             **** THE GBW FILE WAS UPDATED (Methane_orca_exci.gbw) ****
             **** DENSITY Methane_orca_exci.scfp WAS UPDATED ****
             **** ENERGY FILE WAS UPDATED (Methane_orca_exci.en.tmp) ****
             **** THE GBW FILE WAS UPDATED (Methane_orca_exci.gbw) ****
             **** DENSITY Methane_orca_exci.scfp WAS UPDATED ****
----------------
ORBITAL ENERGIES
----------------

  NO   OCC          E(Eh)            E(eV) 
   0   2.0000     -10.167931      -276.6835 
   1   2.0000      -0.689231       -18.7549 
   2   2.0000      -0.386322       -10.5124 
   3   2.0000      -0.386309       -10.5120 
   4   2.0000      -0.386306       -10.5119 
   5   0.0000       0.077239         2.1018 
   6   0.0000       0.147424         4.0116 
   7   0.0000       0.147426         4.0117 
   8   0.0000       0.147428         4.0117 
   9   0.0000       0.416520        11.3341 
  10   0.0000       0.416542        11.3347 
  11   0.0000       0.416544        11.3347 
  12   0.0000       0.656780        17.8719 
  13   0.0000       0.656784        17.8720 
  14   0.0000       0.656822        17.8730 
  15   0.0000       0.689297        18.7567 
  16   0.0000       0.905010        24.6266 
  17   0.0000       0.905028        24.6271 
  18   0.0000       1.045432        28.4476 
  19   0.0000       1.423926        38.7470 
  20   0.0000       1.423933        38.7472 
  21   0.0000       1.423940        38.7474 
  22   0.0000       1.620800        44.1042 
  23   0.0000       1.620805        44.1043 
  24   0.0000       1.620808        44.1044 
  25   0.0000       1.931014        52.5456 
  26   0.0000       1.931019        52.5457 
  27   0.0000       1.931023        52.5458 
  28   0.0000       2.248953        61.1971 
  29   0.0000       2.248980        61.1979 
  30   0.0000       2.415586        65.7314 
  31   0.0000       2.444992        66.5316 
  32   0.0000       2.445023        66.5325 
  33   0.0000       2.445030        66.5326 

                    ********************************
                    * MULLIKEN POPULATION ANALYSIS *
                    ********************************

-----------------------
MULLIKEN ATOMIC CHARGES
-----------------------
   0 C :   -0.116381
   1 H :    0.029107
   2 H :    0.029115
   3 H :    0.029080
   4 H :    0.029079
Sum of atomic charges:   -0.0000000

--------------------------------
MULLIKEN REDUCED ORBITAL CHARGES
--------------------------------
  0 C s       :     3.066159  s :     3.066159
      pz      :     1.007570  p :     3.022627
      px      :     1.007495
      py      :     1.007562
      dz2     :     0.006901  d :     0.027595
      dxz     :     0.003066
      dyz     :     0.006132
      dx2y2   :     0.008432
      dxy     :     0.003065
  1 H s       :     0.941245  s :     0.941245
      pz      :     0.006176  p :     0.029648
      px      :     0.017295
      py      :     0.006176
  2 H s       :     0.941239  s :     0.941239
      pz      :     0.011545  p :     0.029647
      px      :     0.007410
      py      :     0.010691
  3 H s       :     0.941265  s :     0.941265
      pz      :     0.015170  p :     0.029655
      px      :     0.007414
      py      :     0.007070
  4 H s       :     0.941268  s :     0.941268
      pz      :     0.006642  p :     0.029653
      px      :     0.007414
      py      :     0.015598


                     *******************************
                     * LOEWDIN POPULATION ANALYSIS *
                     *******************************

----------------------
LOEWDIN ATOMIC CHARGES
----------------------
   0 C :   -0.117452
   1 H :    0.029365
   2 H :    0.029362
   3 H :    0.029364
   4 H :    0.029362

-------------------------------
LOEWDIN REDUCED ORBITAL CHARGES
-------------------------------
  0 C s       :     2.808772  s :     2.808772
      pz      :     1.069614  p :     3.208820
      px      :     1.069596
      py      :     1.069610
      dz2     :     0.024965  d :     0.099860
      dxz     :     0.011095
      dyz     :     0.022193
      dx2y2   :     0.030513
      dxy     :     0.011094
  1 H s       :     0.892323  s :     0.892323
      pz      :     0.016219  p :     0.078313
      px      :     0.045875
      py      :     0.016219
  2 H s       :     0.892325  s :     0.892325
      pz      :     0.030539  p :     0.078313
      px      :     0.019514
      py      :     0.028261
  3 H s       :     0.892324  s :     0.892324
      pz      :     0.040201  p :     0.078312
      px      :     0.019515
      py      :     0.018596
  4 H s       :     0.892328  s :     0.892328
      pz      :     0.017456  p :     0.078311
      px      :     0.019515
      py      :     0.041340


                      *****************************
                      * MAYER POPULATION ANALYSIS *
                      *****************************

  NA   - Mulliken gross atomic population
  ZA   - Total nuclear charge
  QA   - Mulliken gross atomic charge
  VA   - Mayer's total valence
  BVA  - Mayer's bonded valence
  FA   - Mayer's free valence

  ATOM       NA         ZA         QA         VA         BVA        FA
  0 C      6.1164     6.0000    -0.1164     3.9931     3.9931    -0.0000
  1 H      0.9709     1.0000     0.0291     0.9883     0.9883    -0.0000
  2 H      0.9709     1.0000     0.0291     0.9883     0.9883    -0.0000
  3 H      0.9709     1.0000     0.0291     0.9884     0.9884    -0.0000
  4 H      0.9709     1.0000     0.0291     0.9884     0.9884    -0.0000

  Mayer bond orders larger than 0.100000
B(  0-C ,  1-H ) :   0.9983 B(  0-C ,  2-H ) :   0.9982 B(  0-C ,  3-H ) :   0.9983 
B(  0-C ,  4-H ) :   0.9983 

-------
TIMINGS
-------

Total SCF time: 0 days 0 hours 0 min 1 sec 

Total time                  ....       1.691 sec
Sum of individual times     ....       1.537 sec  ( 90.9%)

Fock matrix formation       ....       1.338 sec  ( 79.1%)
  Split-RI-J                ....       0.200 sec  ( 15.0% of F)
  Chain of spheres X        ....       0.703 sec  ( 52.6% of F)
  XC integration            ....       0.420 sec  ( 31.4% of F)
    Basis function eval.    ....       0.163 sec  ( 38.8% of XC)
    Density eval.           ....       0.061 sec  ( 14.5% of XC)
    XC-Functional eval.     ....       0.106 sec  ( 25.3% of XC)
    XC-Potential eval.      ....       0.054 sec  ( 13.0% of XC)
Diagonalization             ....       0.006 sec  (  0.3%)
Density matrix formation    ....       0.000 sec  (  0.0%)
Population analysis         ....       0.003 sec  (  0.2%)
Initial guess               ....       0.013 sec  (  0.8%)
Orbital Transformation      ....       0.000 sec  (  0.0%)
Orbital Orthonormalization  ....       0.000 sec  (  0.0%)
DIIS solution               ....       0.008 sec  (  0.5%)
SOSCF solution              ....       0.003 sec  (  0.2%)
Grid generation             ....       0.166 sec  (  9.8%)

Maximum memory used throughout the entire SCF-calculation: 43.9 MB


           ************************************************************
           *        Program running with 2 parallel MPI-processes     *
           *              working on a common directory               *
           ************************************************************
------------------------------------------------------------------------------
                        ORCA TD-DFT/TDA CALCULATION
------------------------------------------------------------------------------

Input orbitals are from        ... Methane_orca_exci.gbw
CI-vector output               ... Methane_orca_exci.cis
Tamm-Dancoff approximation     ... operative
CIS-Integral strategy          ... AO-integrals
Integral handling              ... AO integral Direct
Max. core memory used          ... 4000 MB
Reference state                ... RHF
Generation of triplets         ... on
Follow IRoot                   ... off
Number of operators            ... 1
Orbital ranges used for CIS calculation:
 Operator 0:  Orbitals   1...  4  to   5... 33
XAS localization array:
 Operator 0:  Orbitals  -1... -1

-------------------
XC-INTEGRATION GRID
-------------------

General Integration Accuracy     IntAcc      ... 3.467
Radial Grid Type                 RadialGrid  ... OptM3 with GC (2021)
Angular Grid (max. ang.)         AngularGrid ... 1 (Lebedev-50)
Angular grid pruning method      GridPruning ... 4 (adaptive)
Weight generation scheme         WeightScheme... Becke
Basis function cutoff            BFCut       ... 1.0000e-12
Integration weight cutoff        WCut        ... 1.0000e-14
Angular grids for H and He will be reduced by one unit
Partially contracted basis set               ... off
Rotationally invariant grid construction     ... off

Total number of grid points                  ...     2660
Total number of batches                      ...       45
Average number of points per batch           ...       59
Average number of grid points per atom       ...      532

---------------------
COSX-INTEGRATION GRID
---------------------

General Integration Accuracy     IntAcc      ... 3.067
Radial Grid Type                 RadialGrid  ... OptM3 with GC (2021)
Angular Grid (max. ang.)         AngularGrid ... 1 (Lebedev-50)
Angular grid pruning method      GridPruning ... 4 (adaptive)
Weight generation scheme         WeightScheme... Becke
Basis function cutoff            BFCut       ... 1.0000e-12
Integration weight cutoff        WCut        ... 1.0000e-14
Angular grids for H and He will be reduced by one unit
Partially contracted basis set               ... on
Rotationally invariant grid construction     ... off

Total number of grid points                  ...     1247
Total number of batches                      ...       21
Average number of points per batch           ...       59
Average number of grid points per atom       ...      249

---------------
TD-DFT XC SETUP
---------------

DFT calculation                         ... on
Name of the grid file                   ... Methane_orca_exci.grid_cis.tmp
Exchange functional (TD-DFT)            ... B88
   X-Alpha parameter    XAlpha (TD-DFT) ...  0.666667
   Becke's b parameter  XBeta (TD-DFT)  ...  0.004200
Correlation functional (TD-DFT)         ... LYP
 LDA part of GGA corr.  LDAOpt (TD-DFT) ... VWN-5
Hybrid DFT                              ... on
   Exchange mixing (TD-DFT)             ...  0.200
   GGA exch. scaling (TD-DFT)           ...  0.720
   GGA corr. scaling (TD-DFT)           ...  0.810

Building densities             ... done
Calculating rho(r) on the grid ... done
Building xc-kernel on the grid ... done
                    *** TD-DFT CALCULATION INITIALIZED ***

------------------------
DAVIDSON-DIAGONALIZATION
------------------------

Dimension of the eigenvalue problem            ...    116
Number of roots to be determined               ...     10
Maximum size of the expansion space            ...    100
Maximum number of iterations                   ...    100
Convergence tolerance for the residual         ...    1.000e-07
Convergence tolerance for the energies         ...    1.000e-07
Orthogonality tolerance                        ...    1.000e-14
Level Shift                                    ...    0.000e+00
Constructing the preconditioner                ... o.k.
Building the initial guess                     ... o.k.
Number of trial vectors determined             ...    100


                       ****Iteration    0****

   Memory handling for direct AO based CIS:
   Memory per vector needed      ...     1 MB
   Memory needed                 ...     1 MB
   Memory available              ...  4000 MB
   Number of vectors per batch   ...  4000
   Number of batches             ...     1
   Time for densities:            0.001
   Time for RI-J (Direct):        0.028
   Time for K (COSX):             0.076
   Time for XC-Integration:       0.058
   Time for Sigma-Completion:     0.002
   Size of expansion space: 30
   Lowest Energy          :     0.421157708040
   Maximum Energy change  :     0.501391604076 (vector 9)
   Maximum residual norm  :     0.001696763366

                       ****Iteration    1****
   Time for densities:            0.000
   Time for RI-J (Direct):        0.008
   Time for K (COSX):             0.047
   Time for XC-Integration:       0.021
   Time for Sigma-Completion:     0.001
   Size of expansion space: 40
   Lowest Energy          :     0.420523696863
   Maximum Energy change  :     0.002070851315 (vector 8)
   Maximum residual norm  :     0.000002715722

                       ****Iteration    2****
   Time for densities:            0.000
   Time for RI-J (Direct):        0.009
   Time for K (COSX):             0.046
   Time for XC-Integration:       0.020
   Time for Sigma-Completion:     0.001
   Size of expansion space: 50
   Lowest Energy          :     0.420522256881
   Maximum Energy change  :     0.000004069422 (vector 9)
   Maximum residual norm  :     0.000001328413

                       ****Iteration    3****
   Time for densities:            0.000
   Time for RI-J (Direct):        0.008
   Time for K (COSX):             0.046
   Time for XC-Integration:       0.021
   Time for Sigma-Completion:     0.001
   Size of expansion space: 60
   Lowest Energy          :     0.420522256296
   Maximum Energy change  :     0.000012637597 (vector 9)
   Maximum residual norm  :     0.000000079330

      *** CONVERGENCE OF RESIDUAL NORM REACHED ***

Storing the converged CI vectors               ... Methane_orca_exci.cis1

                 *** DAVIDSON DONE ***

Total time for solving the CIS problem:     0.486sec

------------------------------------
TD-DFT/TDA EXCITED STATES (SINGLETS)
------------------------------------

the weight of the individual excitations are printed if larger than 1.0e-02

STATE  1:  E=   0.420522 au     11.443 eV    92294.0 cm**-1 <S**2> =   0.000000
     2a ->   5a  :     0.965462 (c= -0.98257925)
     3a ->   5a  :     0.012730 (c= -0.11282843)
     4a ->   5a  :     0.017236 (c= -0.13128615)

STATE  2:  E=   0.420657 au     11.447 eV    92323.6 cm**-1 <S**2> =   0.000000
     3a ->   5a  :     0.705460 (c= -0.83991637)
     4a ->   5a  :     0.289147 (c=  0.53772349)

STATE  3:  E=   0.420804 au     11.451 eV    92355.9 cm**-1 <S**2> =   0.000000
     2a ->   5a  :     0.029357 (c= -0.17133891)
     3a ->   5a  :     0.276917 (c=  0.52622911)
     4a ->   5a  :     0.688656 (c=  0.82985325)

STATE  4:  E=   0.476042 au     12.954 eV   104479.2 cm**-1 <S**2> =   0.000000
     3a ->   6a  :     0.479340 (c=  0.69234355)
     4a ->   8a  :     0.490953 (c= -0.70068069)

STATE  5:  E=   0.476073 au     12.955 eV   104485.9 cm**-1 <S**2> =   0.000000
     2a ->   6a  :     0.464041 (c= -0.68120555)
     2a ->   7a  :     0.012201 (c= -0.11045600)
     3a ->   7a  :     0.022614 (c= -0.15037995)
     4a ->   6a  :     0.015063 (c=  0.12273066)
     4a ->   7a  :     0.468173 (c= -0.68423182)

STATE  6:  E=   0.476141 au     12.956 eV   104500.9 cm**-1 <S**2> =   0.000000
     2a ->   8a  :     0.490951 (c=  0.70067898)
     3a ->   6a  :     0.012391 (c= -0.11131530)
     3a ->   7a  :     0.465994 (c=  0.68263740)
     4a ->   7a  :     0.018339 (c= -0.13542124)

STATE  7:  E=   0.482714 au     13.135 eV   105943.6 cm**-1 <S**2> =   0.000000
     2a ->   6a  :     0.394237 (c= -0.62788323)
     2a ->   8a  :     0.051374 (c= -0.22665815)
     3a ->   6a  :     0.073513 (c= -0.27113298)
     3a ->   7a  :     0.052014 (c=  0.22806481)
     3a ->   8a  :     0.017725 (c=  0.13313392)
     4a ->   6a  :     0.019451 (c= -0.13946583)
     4a ->   7a  :     0.349715 (c=  0.59136720)
     4a ->   8a  :     0.040407 (c= -0.20101542)

STATE  8:  E=   0.482733 au     13.136 eV   105947.7 cm**-1 <S**2> =   0.000000
     2a ->   6a  :     0.042047 (c=  0.20505440)
     2a ->   7a  :     0.150683 (c=  0.38817931)
     2a ->   8a  :     0.035485 (c= -0.18837383)
     3a ->   6a  :     0.065297 (c= -0.25553236)
     3a ->   7a  :     0.011479 (c=  0.10713845)
     3a ->   8a  :     0.443674 (c=  0.66608831)
     4a ->   6a  :     0.074042 (c= -0.27210664)
     4a ->   7a  :     0.098104 (c= -0.31321578)
     4a ->   8a  :     0.077798 (c= -0.27892313)

STATE  9:  E=   0.499294 au     13.586 eV   109582.4 cm**-1 <S**2> =   0.000000
     2a ->   6a  :     0.042073 (c=  0.20511722)
     2a ->   7a  :     0.117398 (c= -0.34263327)
     2a ->   8a  :     0.359980 (c= -0.59998293)
     3a ->   7a  :     0.338135 (c=  0.58149379)
     3a ->   8a  :     0.063061 (c= -0.25112045)
     4a ->   7a  :     0.043329 (c= -0.20815528)

STATE 10:  E=   0.499325 au     13.587 eV   109589.2 cm**-1 <S**2> =   0.000000
     2a ->   7a  :     0.309717 (c= -0.55652261)
     2a ->   8a  :     0.028649 (c=  0.16926090)
     3a ->   6a  :     0.010995 (c=  0.10485851)
     3a ->   7a  :     0.035398 (c= -0.18814310)
     3a ->   8a  :     0.034852 (c=  0.18668594)
     4a ->   6a  :     0.544691 (c= -0.73803192)
     4a ->   8a  :     0.013599 (c=  0.11661493)


                  ********************************
                  * Entering triplet calculation *
                  ********************************

------------------------
DAVIDSON-DIAGONALIZATION
------------------------

Dimension of the eigenvalue problem            ...    116
Number of roots to be determined               ...     10
Maximum size of the expansion space            ...    100
Maximum number of iterations                   ...    100
Convergence tolerance for the residual         ...    1.000e-07
Convergence tolerance for the energies         ...    1.000e-07
Orthogonality tolerance                        ...    1.000e-14
Level Shift                                    ...    0.000e+00
Constructing the preconditioner                ... o.k.
Building the initial guess                     ... o.k.
Number of trial vectors determined             ...    100


                       ****Iteration    0****
                <<< Triplet sigma vectors requested >>>

   Memory handling for direct AO based CIS:
   Memory per vector needed      ...     1 MB
   Memory needed                 ...     1 MB
   Memory available              ...  4000 MB
   Number of vectors per batch   ...  4000
   Number of batches             ...     1
   Time for densities:            0.001
   Time for K (COSX):             0.073
   Time for XC-Integration:       0.058
   Time for Sigma-Completion:     0.002
   Size of expansion space: 30
   Lowest Energy          :     0.393158493690
   Maximum Energy change  :     0.470867357859 (vector 9)
   Maximum residual norm  :     0.002934807246

                       ****Iteration    1****
   Time for densities:            0.000
   Time for K (COSX):             0.046
   Time for XC-Integration:       0.020
   Time for Sigma-Completion:     0.001
   Size of expansion space: 40
   Lowest Energy          :     0.390360921265
   Maximum Energy change  :     0.004302093945 (vector 3)
   Maximum residual norm  :     0.000013214287

                       ****Iteration    2****
   Time for densities:            0.000
   Time for K (COSX):             0.047
   Time for XC-Integration:       0.020
   Time for Sigma-Completion:     0.001
   Size of expansion space: 50
   Lowest Energy          :     0.390351887347
   Maximum Energy change  :     0.000009033918 (vector 0)
   Maximum residual norm  :     0.000000084364

      *** CONVERGENCE OF RESIDUAL NORM REACHED ***

Storing the converged CI vectors               ... Methane_orca_exci.cis3

                 *** DAVIDSON DONE ***

------------------------------------
TD-DFT/TDA EXCITED STATES (TRIPLETS)
------------------------------------

the weight of the individual excitations are printed if larger than 1.0e-02

STATE  1:  E=   0.390352 au     10.622 eV    85672.3 cm**-1 <S**2> =   2.000000
     2a ->   5a  :     0.909524 (c=  0.95368957)
     2a ->   8a  :     0.023394 (c= -0.15295035)
     3a ->   5a  :     0.015371 (c=  0.12398013)
     3a ->   7a  :     0.022199 (c=  0.14899302)

STATE  2:  E=   0.390450 au     10.625 eV    85693.9 cm**-1 <S**2> =   2.000000
     2a ->   7a  :     0.021347 (c=  0.14610708)
     3a ->   5a  :     0.538901 (c=  0.73409872)
     4a ->   5a  :     0.389267 (c= -0.62391238)
     4a ->   6a  :     0.033382 (c=  0.18270649)

STATE  3:  E=   0.390587 au     10.628 eV    85724.0 cm**-1 <S**2> =   2.000000
     2a ->   5a  :     0.018037 (c=  0.13430022)
     3a ->   5a  :     0.376549 (c= -0.61363555)
     3a ->   6a  :     0.021951 (c= -0.14815759)
     4a ->   5a  :     0.536718 (c= -0.73261048)
     4a ->   8a  :     0.022567 (c= -0.15022252)

STATE  4:  E=   0.423733 au     11.530 eV    92998.6 cm**-1 <S**2> =   2.000000
     1a ->   5a  :     0.011675 (c= -0.10805307)
     2a ->   7a  :     0.314925 (c=  0.56118212)
     3a ->   8a  :     0.320276 (c= -0.56592912)
     4a ->   6a  :     0.311154 (c= -0.55781181)

STATE  5:  E=   0.447913 au     12.188 eV    98305.5 cm**-1 <S**2> =   2.000000
     2a ->   6a  :     0.019631 (c=  0.14011132)
     2a ->   7a  :     0.062682 (c=  0.25036310)
     2a ->   8a  :     0.079533 (c= -0.28201578)
     3a ->   6a  :     0.110522 (c= -0.33244922)
     3a ->   7a  :     0.061911 (c=  0.24882015)
     3a ->   8a  :     0.126264 (c= -0.35533607)
     4a ->   5a  :     0.049701 (c=  0.22293631)
     4a ->   6a  :     0.362036 (c=  0.60169455)
     4a ->   8a  :     0.097840 (c= -0.31279374)

STATE  6:  E=   0.447920 au     12.189 eV    98307.0 cm**-1 <S**2> =   2.000000
     2a ->   5a  :     0.052922 (c= -0.23004695)
     2a ->   6a  :     0.017095 (c=  0.13074679)
     2a ->   7a  :     0.113810 (c= -0.33735793)
     2a ->   8a  :     0.298496 (c= -0.54634768)
     3a ->   6a  :     0.023264 (c=  0.15252651)
     3a ->   7a  :     0.311844 (c=  0.55842950)
     4a ->   6a  :     0.055241 (c= -0.23503344)
     4a ->   7a  :     0.028099 (c= -0.16762876)
     4a ->   8a  :     0.070300 (c=  0.26514109)

STATE  7:  E=   0.447940 au     12.189 eV    98311.4 cm**-1 <S**2> =   2.000000
     2a ->   6a  :     0.031172 (c=  0.17655606)
     2a ->   7a  :     0.297153 (c= -0.54511751)
     3a ->   5a  :     0.053873 (c=  0.23210650)
     3a ->   6a  :     0.201675 (c= -0.44908268)
     3a ->   7a  :     0.031697 (c= -0.17803532)
     3a ->   8a  :     0.052494 (c= -0.22911512)
     4a ->   6a  :     0.108230 (c= -0.32898357)
     4a ->   7a  :     0.011478 (c= -0.10713721)
     4a ->   8a  :     0.188304 (c= -0.43394005)

STATE  8:  E=   0.462897 au     12.596 eV   101594.2 cm**-1 <S**2> =   2.000000
     2a ->   6a  :     0.384920 (c=  0.62041938)
     2a ->   8a  :     0.050911 (c=  0.22563530)
     3a ->   6a  :     0.072726 (c=  0.26967769)
     3a ->   7a  :     0.051649 (c= -0.22726365)
     3a ->   8a  :     0.017222 (c= -0.13123348)
     4a ->   6a  :     0.019751 (c=  0.14053881)
     4a ->   7a  :     0.357513 (c= -0.59792411)
     4a ->   8a  :     0.039741 (c=  0.19935184)

STATE  9:  E=   0.462900 au     12.596 eV   101594.9 cm**-1 <S**2> =   2.000000
     2a ->   6a  :     0.040451 (c=  0.20112342)
     2a ->   7a  :     0.147566 (c=  0.38414293)
     2a ->   8a  :     0.034656 (c= -0.18616030)
     3a ->   6a  :     0.067014 (c= -0.25887117)
     3a ->   7a  :     0.011522 (c=  0.10733959)
     3a ->   8a  :     0.443874 (c=  0.66623851)
     4a ->   6a  :     0.075726 (c= -0.27518405)
     4a ->   7a  :     0.098048 (c= -0.31312541)
     4a ->   8a  :     0.075759 (c= -0.27524324)

STATE 10:  E=   0.470233 au     12.796 eV   103204.1 cm**-1 <S**2> =   2.000000
     3a ->   6a  :     0.457232 (c= -0.67618967)
     3a ->   7a  :     0.027885 (c= -0.16698925)
     4a ->   8a  :     0.489932 (c=  0.69995176)


-----------------------------
TD-DFT/TDA-EXCITATION SPECTRA
-----------------------------

Center of mass = (  1.9242,  0.1760,  0.0595)
Calculating the Dipole integrals                  ... done
Transforming integrals                            ... done
Calculating the Linear Momentum integrals         ... done
Transforming integrals                            ... done
Calculating angular momentum integrals            ... done
Transforming integrals                            ... done

-----------------------------------------------------------------------------
         ABSORPTION SPECTRUM VIA TRANSITION ELECTRIC DIPOLE MOMENTS
-----------------------------------------------------------------------------
State   Energy    Wavelength  fosc         T2        TX        TY        TZ  
        (cm-1)      (nm)                 (au**2)    (au)      (au)      (au) 
-----------------------------------------------------------------------------
   1   92294.0    108.3   0.168122337   0.59969  -0.01600   0.44591   0.63293
   2   92323.6    108.3   0.167189804   0.59617  -0.26159   0.59090  -0.42258
   3   92355.9    108.3   0.165864592   0.59124   0.72306   0.22253  -0.13748
   4  104479.2     95.7   0.000000363   0.00000   0.00054  -0.00027   0.00088
   5  104485.9     95.7   0.000000276   0.00000  -0.00048  -0.00076  -0.00025
   6  104500.9     95.7   0.000000036   0.00000  -0.00029   0.00015   0.00008
   7  105943.6     94.4   0.000000344   0.00000  -0.00002  -0.00032   0.00098
   8  105947.7     94.4   0.000005769   0.00002   0.00071  -0.00325   0.00262
   9  109582.4     91.3   0.526017428   1.58028  -0.07024  -0.80118  -0.96616
  10  109589.2     91.2   0.527201774   1.58374  -0.15852   0.96658  -0.79015
  11   85672.3    116.7   spin forbidden (mult=3)
  12   85693.9    116.7   spin forbidden (mult=3)
  13   85724.0    116.7   spin forbidden (mult=3)
  14   92998.6    107.5   spin forbidden (mult=3)
  15   98305.5    101.7   spin forbidden (mult=3)
  16   98307.0    101.7   spin forbidden (mult=3)
  17   98311.4    101.7   spin forbidden (mult=3)
  18  101594.2     98.4   spin forbidden (mult=3)
  19  101594.9     98.4   spin forbidden (mult=3)
  20  103204.1     96.9   spin forbidden (mult=3)

-----------------------------------------------------------------------------
         ABSORPTION SPECTRUM VIA TRANSITION VELOCITY DIPOLE MOMENTS
-----------------------------------------------------------------------------
State   Energy    Wavelength   fosc        P2         PX        PY        PZ  
        (cm-1)      (nm)                 (au**2)     (au)      (au)      (au) 
-----------------------------------------------------------------------------
   1   92294.0    108.3   0.177288612   0.11183   0.00690  -0.19258  -0.27330
   2   92323.6    108.3   0.176185712   0.11117   0.11297  -0.25516   0.18249
   3   92355.9    108.3   0.174635746   0.11023  -0.31221  -0.09610   0.05932
   4  104479.2     95.7   0.000000274   0.00000  -0.00021   0.00010  -0.00037
   5  104485.9     95.7   0.000000188   0.00000   0.00021   0.00030   0.00004
   6  104500.9     95.7   0.000000027   0.00000   0.00012  -0.00006  -0.00004
   7  105943.6     94.4   0.000000333   0.00000   0.00003   0.00008  -0.00048
   8  105947.7     94.4   0.000004437   0.00000  -0.00032   0.00140  -0.00107
   9  109582.4     91.3   0.378663587   0.28360   0.02976   0.33939   0.40930
  10  109589.2     91.2   0.379574836   0.28430   0.06714  -0.40954   0.33477
  11   85672.3    116.7   spin forbidden (mult=3)
  12   85693.9    116.7   spin forbidden (mult=3)
  13   85724.0    116.7   spin forbidden (mult=3)
  14   92998.6    107.5   spin forbidden (mult=3)
  15   98305.5    101.7   spin forbidden (mult=3)
  16   98307.0    101.7   spin forbidden (mult=3)
  17   98311.4    101.7   spin forbidden (mult=3)
  18  101594.2     98.4   spin forbidden (mult=3)
  19  101594.9     98.4   spin forbidden (mult=3)
  20  103204.1     96.9   spin forbidden (mult=3)

-------------------------------------------------------------------
                             CD SPECTRUM
-------------------------------------------------------------------
State  Energy     Wavelength     R         MX        MY        MZ   
       (cm-1)       (nm)     (1e40*cgs)   (au)      (au)      (au)  
-------------------------------------------------------------------
   1   92294.0    108.3      0.02342   0.00010  -0.00005   0.00011
   2   92323.6    108.3     -0.02855   0.00003   0.00008   0.00024
   3   92355.9    108.3      0.01342   0.00004   0.00002   0.00005
   4  104479.2     95.7     -0.08245  -0.02124  -0.24778  -0.26067
   5  104485.9     95.7     -0.00297   0.24073  -0.20364   0.17399
   6  104500.9     95.7     -0.03179   0.26682   0.16384  -0.17745
   7  105943.6     94.4      0.00041   0.00185  -0.00115   0.00054
   8  105947.7     94.4     -0.00044  -0.00101  -0.00068  -0.00092
   9  109582.4     91.3      0.04765  -0.00004   0.00006  -0.00015
  10  109589.2     91.2     -0.01023  -0.00001  -0.00022  -0.00024
  11   85672.3    116.7 spin forbidden
  12   85693.9    116.7 spin forbidden
  13   85724.0    116.7 spin forbidden
  14   92998.6    107.5 spin forbidden
  15   98305.5    101.7 spin forbidden
  16   98307.0    101.7 spin forbidden
  17   98311.4    101.7 spin forbidden
  18  101594.2     98.4 spin forbidden
  19  101594.9     98.4 spin forbidden
  20  103204.1     96.9 spin forbidden

-------------------------------------------------------------------
         CD SPECTRUM VIA TRANSITION VELOCITY DIPOLE MOMENTS        
-------------------------------------------------------------------
State  Energy     Wavelength     R         MX        MY        MZ   
       (cm-1)       (nm)     (1e40*cgs)   (au)      (au)      (au)  
-------------------------------------------------------------------
   1   92294.0    108.3     -0.02405   0.00010  -0.00005   0.00011
   2   92323.6    108.3      0.02931   0.00003   0.00008   0.00024
   3   92355.9    108.3     -0.01377   0.00004   0.00002   0.00005
   4  104479.2     95.7      0.07581  -0.02124  -0.24778  -0.26067
   5  104485.9     95.7     -0.00350   0.24073  -0.20364   0.17399
   6  104500.9     95.7      0.02896   0.26682   0.16384  -0.17745
   7  105943.6     94.4     -0.00029   0.00185  -0.00115   0.00054
   8  105947.7     94.4      0.00036  -0.00101  -0.00068  -0.00092
   9  109582.4     91.3     -0.04043  -0.00004   0.00006  -0.00015
  10  109589.2     91.2      0.00869  -0.00001  -0.00022  -0.00024
  11   85672.3    116.7 spin forbidden
  12   85693.9    116.7 spin forbidden
  13   85724.0    116.7 spin forbidden
  14   92998.6    107.5 spin forbidden
  15   98305.5    101.7 spin forbidden
  16   98307.0    101.7 spin forbidden
  17   98311.4    101.7 spin forbidden
  18  101594.2     98.4 spin forbidden
  19  101594.9     98.4 spin forbidden
  20  103204.1     96.9 spin forbidden

Total run time:        1.269 sec

           *** ORCA-CIS/TD-DFT FINISHED WITHOUT ERROR ***

Maximum memory used throughout the entire CIS-calculation: 47.5 MB

-----------------------
CIS/TD-DFT TOTAL ENERGY
-----------------------

    E(SCF)  =    -40.480305441 Eh
    DE(CIS) =      0.420522256 Eh (Root  1)
    ----------------------------- ---------
    E(tot)  =    -40.059783185 Eh


-------------------------   --------------------
FINAL SINGLE POINT ENERGY       -40.059783184651
-------------------------   --------------------


                            ***************************************
                            *     ORCA property calculations      *
                            ***************************************

                                    ---------------------
                                    Active property flags
                                    ---------------------
   (+) Dipole Moment


------------------------------------------------------------------------------
                       ORCA ELECTRIC PROPERTIES CALCULATION
------------------------------------------------------------------------------

Dipole Moment Calculation                       ... on
Quadrupole Moment Calculation                   ... off
Polarizability Calculation                      ... off
GBWName                                         ... Methane_orca_exci.gbw
Electron density                                ... Methane_orca_exci.scfp
The origin for moment calculation is the CENTER OF MASS  = ( 1.924214,  0.176028  0.059471)

-------------
DIPOLE MOMENT
-------------
                                X             Y             Z
Electronic contribution:     -0.00002       0.00001      -0.00006
Nuclear contribution   :     -0.00000      -0.00000       0.00001
                        -----------------------------------------
Total Dipole Moment    :     -0.00002       0.00001      -0.00006
                        -----------------------------------------
Magnitude (a.u.)       :      0.00006
Magnitude (Debye)      :      0.00016



--------------------
Rotational spectrum 
--------------------
 
Rotational constants in cm-1:     5.257329     5.257298     5.257290 
Rotational constants in MHz : 157610.754312 157609.814970 157609.576313 

 Dipole components along the rotational axes: 
x,y,z [a.u.] :    -0.000043     0.000001     0.000044 
x,y,z [Debye]:    -0.000108     0.000003     0.000112 

 

Timings for individual modules:

Sum of individual times         ...        4.771 sec (=   0.080 min)
GTO integral calculation        ...        0.347 sec (=   0.006 min)   7.3 %
SCF iterations                  ...        1.942 sec (=   0.032 min)  40.7 %
CIS module                      ...        2.481 sec (=   0.041 min)  52.0 %
                             ****ORCA TERMINATED NORMALLY****
TOTAL RUN TIME: 0 days 0 hours 0 minutes 5 seconds 129 msec
