 Entering Gaussian System, Link 0=/opt/gaussian/g16/sse4/g16/g16
 Initial command:
 /opt/gaussian/g16/sse4/g16/l1.exe "/scratch/1549351/Gau-13068.inp" -scrdir="/scratch/1549351/"
 Entering Link 1 = /opt/gaussian/g16/sse4/g16/l1.exe PID=     13070.
  
 Copyright (c) 1988,1990,1992,1993,1995,1998,2003,2009,2016,
            Gaussian, Inc.  All Rights Reserved.
  
 This is part of the Gaussian(R) 16 program.  It is based on
 the Gaussian(R) 09 system (copyright 2009, Gaussian, Inc.),
 the Gaussian(R) 03 system (copyright 2003, Gaussian, Inc.),
 the Gaussian(R) 98 system (copyright 1998, Gaussian, Inc.),
 the Gaussian(R) 94 system (copyright 1995, Gaussian, Inc.),
 the Gaussian 92(TM) system (copyright 1992, Gaussian, Inc.),
 the Gaussian 90(TM) system (copyright 1990, Gaussian, Inc.),
 the Gaussian 88(TM) system (copyright 1988, Gaussian, Inc.),
 the Gaussian 86(TM) system (copyright 1986, Carnegie Mellon
 University), and the Gaussian 82(TM) system (copyright 1983,
 Carnegie Mellon University). Gaussian is a federally registered
 trademark of Gaussian, Inc.
  
 This software contains proprietary and confidential information,
 including trade secrets, belonging to Gaussian, Inc.
  
 This software is provided under written license and may be
 used, copied, transmitted, or stored only in accord with that
 written license.
  
 The following legend is applicable only to US Government
 contracts under FAR:
  
                    RESTRICTED RIGHTS LEGEND
  
 Use, reproduction and disclosure by the US Government is
 subject to restrictions as set forth in subparagraphs (a)
 and (c) of the Commercial Computer Software - Restricted
 Rights clause in FAR 52.227-19.
  
 Gaussian, Inc.
 340 Quinnipiac St., Bldg. 40, Wallingford CT 06492
  
  
 ---------------------------------------------------------------
 Warning -- This program may not be used in any manner that
 competes with the business of Gaussian, Inc. or will provide
 assistance to any competitor of Gaussian, Inc.  The licensee
 of this program is prohibited from giving any competitor of
 Gaussian, Inc. access to this program.  By using this program,
 the user acknowledges that Gaussian, Inc. is engaged in the
 business of creating and licensing software in the field of
 computational chemistry and represents and warrants to the
 licensee that it is not a competitor of Gaussian, Inc. and that
 it will not use this program in any manner prohibited above.
 ---------------------------------------------------------------
  

 Cite this work as:
 Gaussian 16, Revision A.03,
 M. J. Frisch, G. W. Trucks, H. B. Schlegel, G. E. Scuseria, 
 M. A. Robb, J. R. Cheeseman, G. Scalmani, V. Barone, 
 G. A. Petersson, H. Nakatsuji, X. Li, M. Caricato, A. V. Marenich, 
 J. Bloino, B. G. Janesko, R. Gomperts, B. Mennucci, H. P. Hratchian, 
 J. V. Ortiz, A. F. Izmaylov, J. L. Sonnenberg, D. Williams-Young, 
 F. Ding, F. Lipparini, F. Egidi, J. Goings, B. Peng, A. Petrone, 
 T. Henderson, D. Ranasinghe, V. G. Zakrzewski, J. Gao, N. Rega, 
 G. Zheng, W. Liang, M. Hada, M. Ehara, K. Toyota, R. Fukuda, 
 J. Hasegawa, M. Ishida, T. Nakajima, Y. Honda, O. Kitao, H. Nakai, 
 T. Vreven, K. Throssell, J. A. Montgomery, Jr., J. E. Peralta, 
 F. Ogliaro, M. J. Bearpark, J. J. Heyd, E. N. Brothers, K. N. Kudin, 
 V. N. Staroverov, T. A. Keith, R. Kobayashi, J. Normand, 
 K. Raghavachari, A. P. Rendell, J. C. Burant, S. S. Iyengar, 
 J. Tomasi, M. Cossi, J. M. Millam, M. Klene, C. Adamo, R. Cammi, 
 J. W. Ochterski, R. L. Martin, K. Morokuma, O. Farkas, 
 J. B. Foresman, and D. J. Fox, Gaussian, Inc., Wallingford CT, 2016.
 
 ******************************************
 Gaussian 16:  ES64L-G16RevA.03 25-Dec-2016
                16-Dec-2021 
 ******************************************
 %chk=MP2_Ethanol_gaus.chk
 %nprocshared=4
 Will use up to    4 processors via shared memory.
 %mem=4GB
 -----------------------------------------------
 #p opt freq mp2/cc-pvdz geom=connectivity polar
 -----------------------------------------------
 1/18=20,19=15,38=1,57=2/1,3;
 2/9=110,12=2,17=6,18=5,40=1/2;
 3/5=16,11=9,25=1,30=1,71=1/1,2,3;
 4//1;
 5/5=2,38=5,98=1/2;
 8/6=4,10=1/1;
 9/15=2,16=-3/6;
 10/5=1/2;
 6/7=2,8=2,9=2,10=2/1;
 7/12=2/1,2,3,16;
 1/18=20,19=15/3(2);
 2/9=110/2;
 99//99;
 2/9=110/2;
 3/5=16,11=9,25=1,30=1,71=1/1,2,3;
 4/5=5,16=3,69=1/1;
 5/5=2,38=5,98=1/2;
 8/6=4,10=1/1;
 9/15=2,16=-3/6;
 10/5=1/2;
 7/12=2/1,2,3,16;
 1/18=20,19=15/3(-8);
 2/9=110/2;
 6/7=2,8=2,9=2,10=2/1;
 99//99;
 Leave Link    1 at Thu Dec 16 11:32:07 2021, MaxMem=   536870912 cpu:               0.1 elap:               0.0
 (Enter /opt/gaussian/g16/sse4/g16/l101.exe)
 -----------
 Ethanol.xyz
 -----------
 Symbolic Z-matrix:
 Charge =  0 Multiplicity = 1
 C                     1.0111    0.07708  -0.05953 
 C                     2.52569   0.07985  -0.0664 
 O                     3.00581   1.24365  -0.72365 
 H                     0.62516  -0.80571   0.4578 
 H                     0.61937   0.08556  -1.08199 
 H                     0.62645   0.97441   0.4362 
 H                     2.91751  -0.80185  -0.58251 
 H                     2.91316   0.08142   0.95654 
 H                     2.66453   1.22802  -1.63407 
 
 ITRead=  0  0  0  0  0  0  0  0  0
 MicOpt= -1 -1 -1 -1 -1 -1 -1 -1 -1
 NAtoms=      9 NQM=        9 NQMF=       0 NMMI=      0 NMMIF=      0
                NMic=       0 NMicF=      0.
                    Isotopes and Nuclear Properties:
 (Nuclear quadrupole moments (NQMom) in fm**2, nuclear magnetic moments (NMagM)
  in nuclear magnetons)

  Atom         1           2           3           4           5           6           7           8           9
 IAtWgt=          12          12          16           1           1           1           1           1           1
 AtmWgt=  12.0000000  12.0000000  15.9949146   1.0078250   1.0078250   1.0078250   1.0078250   1.0078250   1.0078250
 NucSpn=           0           0           0           1           1           1           1           1           1
 AtZEff=  -0.0000000  -0.0000000  -0.0000000  -0.0000000  -0.0000000  -0.0000000  -0.0000000  -0.0000000  -0.0000000
 NQMom=    0.0000000   0.0000000   0.0000000   0.0000000   0.0000000   0.0000000   0.0000000   0.0000000   0.0000000
 NMagM=    0.0000000   0.0000000   0.0000000   2.7928460   2.7928460   2.7928460   2.7928460   2.7928460   2.7928460
 AtZNuc=   6.0000000   6.0000000   8.0000000   1.0000000   1.0000000   1.0000000   1.0000000   1.0000000   1.0000000
 Leave Link  101 at Thu Dec 16 11:32:08 2021, MaxMem=   536870912 cpu:               0.8 elap:               0.2
 (Enter /opt/gaussian/g16/sse4/g16/l103.exe)

 GradGradGradGradGradGradGradGradGradGradGradGradGradGradGradGradGradGrad
 Berny optimization.
 Initialization pass.
                           ----------------------------
                           !    Initial Parameters    !
                           ! (Angstroms and Degrees)  !
 --------------------------                            --------------------------
 ! Name  Definition              Value          Derivative Info.                !
 --------------------------------------------------------------------------------
 ! R1    R(1,2)                  1.5146         estimate D2E/DX2                !
 ! R2    R(1,4)                  1.0936         estimate D2E/DX2                !
 ! R3    R(1,5)                  1.095          estimate D2E/DX2                !
 ! R4    R(1,6)                  1.0949         estimate D2E/DX2                !
 ! R5    R(2,3)                  1.4202         estimate D2E/DX2                !
 ! R6    R(2,7)                  1.0942         estimate D2E/DX2                !
 ! R7    R(2,8)                  1.0939         estimate D2E/DX2                !
 ! R8    R(3,9)                  0.9724         estimate D2E/DX2                !
 ! A1    A(2,1,4)              110.8875         estimate D2E/DX2                !
 ! A2    A(2,1,5)              110.7016         estimate D2E/DX2                !
 ! A3    A(2,1,6)              110.6003         estimate D2E/DX2                !
 ! A4    A(4,1,5)              108.7678         estimate D2E/DX2                !
 ! A5    A(4,1,6)              108.869          estimate D2E/DX2                !
 ! A6    A(5,1,6)              106.9023         estimate D2E/DX2                !
 ! A7    A(1,2,3)              109.9782         estimate D2E/DX2                !
 ! A8    A(1,2,7)              111.0233         estimate D2E/DX2                !
 ! A9    A(1,2,8)              110.4859         estimate D2E/DX2                !
 ! A10   A(3,2,7)              108.722          estimate D2E/DX2                !
 ! A11   A(3,2,8)              108.1712         estimate D2E/DX2                !
 ! A12   A(7,2,8)              108.3854         estimate D2E/DX2                !
 ! A13   A(2,3,9)              107.5458         estimate D2E/DX2                !
 ! D1    D(4,1,2,3)           -179.0862         estimate D2E/DX2                !
 ! D2    D(4,1,2,7)             60.5425         estimate D2E/DX2                !
 ! D3    D(4,1,2,8)            -59.7424         estimate D2E/DX2                !
 ! D4    D(5,1,2,3)             60.0936         estimate D2E/DX2                !
 ! D5    D(5,1,2,7)            -60.2777         estimate D2E/DX2                !
 ! D6    D(5,1,2,8)            179.4374         estimate D2E/DX2                !
 ! D7    D(6,1,2,3)            -58.2062         estimate D2E/DX2                !
 ! D8    D(6,1,2,7)           -178.5775         estimate D2E/DX2                !
 ! D9    D(6,1,2,8)             61.1376         estimate D2E/DX2                !
 ! D10   D(1,2,3,9)            -59.8749         estimate D2E/DX2                !
 ! D11   D(7,2,3,9)             61.8776         estimate D2E/DX2                !
 ! D12   D(8,2,3,9)            179.3775         estimate D2E/DX2                !
 --------------------------------------------------------------------------------
 Trust Radius=3.00D-01 FncErr=1.00D-07 GrdErr=1.00D-07 EigMax=2.50D+02 EigMin=1.00D-04
 Number of steps in this run=     43 maximum allowed number of steps=    100.
 GradGradGradGradGradGradGradGradGradGradGradGradGradGradGradGradGradGrad

 Leave Link  103 at Thu Dec 16 11:32:08 2021, MaxMem=   536870912 cpu:               0.0 elap:               0.0
 (Enter /opt/gaussian/g16/sse4/g16/l202.exe)
                          Input orientation:                          
 ---------------------------------------------------------------------
 Center     Atomic      Atomic             Coordinates (Angstroms)
 Number     Number       Type             X           Y           Z
 ---------------------------------------------------------------------
      1          6           0        1.011100    0.077080   -0.059530
      2          6           0        2.525690    0.079850   -0.066400
      3          8           0        3.005810    1.243650   -0.723650
      4          1           0        0.625160   -0.805710    0.457800
      5          1           0        0.619370    0.085560   -1.081990
      6          1           0        0.626450    0.974410    0.436200
      7          1           0        2.917510   -0.801850   -0.582510
      8          1           0        2.913160    0.081420    0.956540
      9          1           0        2.664530    1.228020   -1.634070
 ---------------------------------------------------------------------
                    Distance matrix (angstroms):
                    1          2          3          4          5
     1  C    0.000000
     2  C    1.514608   0.000000
     3  O    2.404331   1.420184   0.000000
     4  H    1.093571   2.161253   3.356068   0.000000
     5  H    1.094965   2.159980   2.676691   1.779143   0.000000
     6  H    1.094945   2.158693   2.660657   1.780252   1.759263
     7  H    2.163429   1.094206   2.052264   2.517365   2.513648
     8  H    2.156444   1.093865   2.045092   2.504134   3.068728
     9  H    2.556887   1.948117   0.972410   3.559636   2.406800
                    6          7          8          9
     6  H    0.000000
     7  H    3.072755   0.000000
     8  H    2.509428   1.774503   0.000000
     9  H    2.916180   2.300033   2.843900   0.000000
 Stoichiometry    C2H6O
 Framework group  C1[X(C2H6O)]
 Deg. of freedom    21
 Full point group                 C1      NOp   1
 Largest Abelian subgroup         C1      NOp   1
 Largest concise Abelian subgroup C1      NOp   1
                         Standard orientation:                         
 ---------------------------------------------------------------------
 Center     Atomic      Atomic             Coordinates (Angstroms)
 Number     Number       Type             X           Y           Z
 ---------------------------------------------------------------------
      1          6           0       -1.189013   -0.242578   -0.020188
      2          6           0        0.082495    0.577704    0.046466
      3          8           0        1.213414   -0.266431   -0.112846
      4          1           0       -2.070742    0.395723    0.084802
      5          1           0       -1.204425   -0.997807    0.772491
      6          1           0       -1.251755   -0.779289   -0.972506
      7          1           0        0.164518    1.097414    1.005873
      8          1           0        0.098776    1.324289   -0.752839
      9          1           0        1.195425   -0.919638    0.607278
 ---------------------------------------------------------------------
 Rotational constants (GHZ):          33.3036258           9.5408688           8.3219240
 Leave Link  202 at Thu Dec 16 11:32:08 2021, MaxMem=   536870912 cpu:               0.0 elap:               0.0
 (Enter /opt/gaussian/g16/sse4/g16/l301.exe)
 Standard basis: CC-pVDZ (5D, 7F)
 Ernie: Thresh=  0.10000D-02 Tol=  0.10000D-05 Strict=F.
 Ernie:  6 primitive shells out of 96 were deleted.
 There are    75 symmetry adapted cartesian basis functions of A   symmetry.
 There are    72 symmetry adapted basis functions of A   symmetry.
    72 basis functions,   141 primitive gaussians,    75 cartesian basis functions
    13 alpha electrons       13 beta electrons
       nuclear repulsion energy        82.0240653680 Hartrees.
 IExCor=    0 DFT=F Ex=HF Corr=None ExCW=0 ScaHFX=  1.000000
 ScaDFX=  1.000000  1.000000  1.000000  1.000000 ScalE2=  1.000000  1.000000
 IRadAn=      5 IRanWt=     -1 IRanGd=            0 ICorTp=0 IEmpDi=  4
 NAtoms=    9 NActive=    9 NUniq=    9 SFac= 1.00D+00 NAtFMM=   60 NAOKFM=F Big=F
 Integral buffers will be    131072 words long.
 Raffenetti 1 integral format.
 Two-electron integral symmetry is turned on.
 Leave Link  301 at Thu Dec 16 11:32:09 2021, MaxMem=   536870912 cpu:               0.1 elap:               0.0
 (Enter /opt/gaussian/g16/sse4/g16/l302.exe)
 NPDir=0 NMtPBC=     1 NCelOv=     1 NCel=       1 NClECP=     1 NCelD=      1
         NCelK=      1 NCelE2=     1 NClLst=     1 CellRange=     0.0.
 One-electron integrals computed using PRISM.
 One-electron integral symmetry used in STVInt
 NBasis=    72 RedAO= T EigKep=  6.42D-03  NBF=    72
 NBsUse=    72 1.00D-06 EigRej= -1.00D+00 NBFU=    72
 Leave Link  302 at Thu Dec 16 11:32:09 2021, MaxMem=   536870912 cpu:               0.5 elap:               0.1
 (Enter /opt/gaussian/g16/sse4/g16/l303.exe)
 DipDrv:  MaxL=1.
 Leave Link  303 at Thu Dec 16 11:32:09 2021, MaxMem=   536870912 cpu:               0.1 elap:               0.0
 (Enter /opt/gaussian/g16/sse4/g16/l401.exe)
 ExpMin= 1.22D-01 ExpMax= 1.17D+04 ExpMxC= 4.01D+02 IAcc=3 IRadAn=         5 AccDes= 0.00D+00
 Harris functional with IExCor=  205 and IRadAn=       5 diagonalized for initial guess.
 HarFok:  IExCor=  205 AccDes= 0.00D+00 IRadAn=         5 IDoV= 1 UseB2=F ITyADJ=14
 ICtDFT=  3500011 ScaDFX=  1.000000  1.000000  1.000000  1.000000
 FoFCou: FMM=F IPFlag=           0 FMFlag=      100000 FMFlg1=           0
         NFxFlg=           0 DoJE=T BraDBF=F KetDBF=T FulRan=T
         wScrn=  0.000000 ICntrl=       500 IOpCl=  0 I1Cent=   200000004 NGrid=           0
         NMat0=    1 NMatS0=      1 NMatT0=    0 NMatD0=    1 NMtDS0=    0 NMtDT0=    0
 Petite list used in FoFCou.
 Harris En= -154.356717510674    
 JPrj=0 DoOrth=F DoCkMO=F.
 Leave Link  401 at Thu Dec 16 11:32:10 2021, MaxMem=   536870912 cpu:               1.8 elap:               0.4
 (Enter /opt/gaussian/g16/sse4/g16/l502.exe)
 Keep R1 ints in memory in canonical form, NReq=4336610.
 FoFCou: FMM=F IPFlag=           0 FMFlag=           0 FMFlg1=           0
         NFxFlg=           0 DoJE=F BraDBF=F KetDBF=F FulRan=T
         wScrn=  0.000000 ICntrl=       600 IOpCl=  0 I1Cent=           0 NGrid=           0
         NMat0=    1 NMatS0=   2628 NMatT0=    0 NMatD0=    1 NMtDS0=    0 NMtDT0=    0
 Symmetry not used in FoFCou.
 Two-electron integral symmetry not used.
 Closed shell SCF:
 Using DIIS extrapolation, IDIIS=  1040.
 NGot=   536870912 LenX=   533403697 LenY=   533397631
 Requested convergence on RMS density matrix=1.00D-08 within 128 cycles.
 Requested convergence on MAX density matrix=1.00D-06.
 Requested convergence on             energy=1.00D-06.
 No special actions if energy rises.

 Cycle   1  Pass 1  IDiag  1:
 E= -153.917564715805    
 DIIS: error= 3.43D-02 at cycle   1 NSaved=   1.
 NSaved= 1 IEnMin= 1 EnMin= -153.917564715805     IErMin= 1 ErrMin= 3.43D-02
 ErrMax= 3.43D-02  0.00D+00 EMaxC= 1.00D-01 BMatC= 2.04D-01 BMatP= 2.04D-01
 IDIUse=3 WtCom= 6.57D-01 WtEn= 3.43D-01
 Coeff-Com:  0.100D+01
 Coeff-En:   0.100D+01
 Coeff:      0.100D+01
 Gap=     0.562 Goal=   None    Shift=    0.000
 GapD=    0.562 DampG=2.000 DampE=0.500 DampFc=1.0000 IDamp=-1.
 RMSDP=6.21D-03 MaxDP=1.17D-01              OVMax= 1.22D-01

 Cycle   2  Pass 1  IDiag  1:
 E= -154.059998277528     Delta-E=       -0.142433561724 Rises=F Damp=F
 DIIS: error= 1.50D-02 at cycle   2 NSaved=   2.
 NSaved= 2 IEnMin= 2 EnMin= -154.059998277528     IErMin= 2 ErrMin= 1.50D-02
 ErrMax= 1.50D-02  0.00D+00 EMaxC= 1.00D-01 BMatC= 3.63D-02 BMatP= 2.04D-01
 IDIUse=3 WtCom= 8.50D-01 WtEn= 1.50D-01
 Coeff-Com:  0.264D+00 0.736D+00
 Coeff-En:   0.000D+00 0.100D+01
 Coeff:      0.225D+00 0.775D+00
 Gap=     0.632 Goal=   None    Shift=    0.000
 RMSDP=2.23D-03 MaxDP=3.21D-02 DE=-1.42D-01 OVMax= 3.83D-02

 Cycle   3  Pass 1  IDiag  1:
 E= -154.089893139681     Delta-E=       -0.029894862152 Rises=F Damp=F
 DIIS: error= 2.46D-03 at cycle   3 NSaved=   3.
 NSaved= 3 IEnMin= 3 EnMin= -154.089893139681     IErMin= 3 ErrMin= 2.46D-03
 ErrMax= 2.46D-03  0.00D+00 EMaxC= 1.00D-01 BMatC= 1.12D-03 BMatP= 3.63D-02
 IDIUse=3 WtCom= 9.75D-01 WtEn= 2.46D-02
 Coeff-Com: -0.206D-01 0.974D-01 0.923D+00
 Coeff-En:   0.000D+00 0.000D+00 0.100D+01
 Coeff:     -0.200D-01 0.950D-01 0.925D+00
 Gap=     0.611 Goal=   None    Shift=    0.000
 RMSDP=3.38D-04 MaxDP=8.06D-03 DE=-2.99D-02 OVMax= 7.49D-03

 Cycle   4  Pass 1  IDiag  1:
 E= -154.090878300730     Delta-E=       -0.000985161049 Rises=F Damp=F
 DIIS: error= 6.09D-04 at cycle   4 NSaved=   4.
 NSaved= 4 IEnMin= 4 EnMin= -154.090878300730     IErMin= 4 ErrMin= 6.09D-04
 ErrMax= 6.09D-04  0.00D+00 EMaxC= 1.00D-01 BMatC= 6.48D-05 BMatP= 1.12D-03
 IDIUse=3 WtCom= 9.94D-01 WtEn= 6.09D-03
 Coeff-Com: -0.104D-01-0.137D-02 0.197D+00 0.815D+00
 Coeff-En:   0.000D+00 0.000D+00 0.000D+00 0.100D+01
 Coeff:     -0.103D-01-0.137D-02 0.196D+00 0.816D+00
 Gap=     0.614 Goal=   None    Shift=    0.000
 RMSDP=1.07D-04 MaxDP=1.82D-03 DE=-9.85D-04 OVMax= 2.14D-03

 Cycle   5  Pass 1  IDiag  1:
 E= -154.090943629829     Delta-E=       -0.000065329099 Rises=F Damp=F
 DIIS: error= 3.26D-04 at cycle   5 NSaved=   5.
 NSaved= 5 IEnMin= 5 EnMin= -154.090943629829     IErMin= 5 ErrMin= 3.26D-04
 ErrMax= 3.26D-04  0.00D+00 EMaxC= 1.00D-01 BMatC= 5.57D-06 BMatP= 6.48D-05
 IDIUse=3 WtCom= 9.97D-01 WtEn= 3.26D-03
 Coeff-Com:  0.151D-02-0.123D-01-0.929D-01 0.615D-01 0.104D+01
 Coeff-En:   0.000D+00 0.000D+00 0.000D+00 0.000D+00 0.100D+01
 Coeff:      0.151D-02-0.122D-01-0.926D-01 0.613D-01 0.104D+01
 Gap=     0.614 Goal=   None    Shift=    0.000
 RMSDP=4.42D-05 MaxDP=4.22D-04 DE=-6.53D-05 OVMax= 7.61D-04

 Cycle   6  Pass 1  IDiag  1:
 E= -154.090952119748     Delta-E=       -0.000008489919 Rises=F Damp=F
 DIIS: error= 2.97D-05 at cycle   6 NSaved=   6.
 NSaved= 6 IEnMin= 6 EnMin= -154.090952119748     IErMin= 6 ErrMin= 2.97D-05
 ErrMax= 2.97D-05  0.00D+00 EMaxC= 1.00D-01 BMatC= 1.46D-07 BMatP= 5.57D-06
 IDIUse=1 WtCom= 1.00D+00 WtEn= 0.00D+00
 Coeff-Com:  0.517D-03-0.648D-03-0.110D-01-0.366D-01 0.180D-01 0.103D+01
 Coeff:      0.517D-03-0.648D-03-0.110D-01-0.366D-01 0.180D-01 0.103D+01
 Gap=     0.614 Goal=   None    Shift=    0.000
 RMSDP=1.02D-05 MaxDP=1.04D-04 DE=-8.49D-06 OVMax= 1.87D-04

 Cycle   7  Pass 1  IDiag  1:
 E= -154.090952423145     Delta-E=       -0.000000303397 Rises=F Damp=F
 DIIS: error= 9.30D-06 at cycle   7 NSaved=   7.
 NSaved= 7 IEnMin= 7 EnMin= -154.090952423145     IErMin= 7 ErrMin= 9.30D-06
 ErrMax= 9.30D-06  0.00D+00 EMaxC= 1.00D-01 BMatC= 1.04D-08 BMatP= 1.46D-07
 IDIUse=1 WtCom= 1.00D+00 WtEn= 0.00D+00
 Coeff-Com: -0.795D-04 0.484D-03 0.452D-02-0.409D-02-0.458D-01-0.105D-01
 Coeff-Com:  0.106D+01
 Coeff:     -0.795D-04 0.484D-03 0.452D-02-0.409D-02-0.458D-01-0.105D-01
 Coeff:      0.106D+01
 Gap=     0.614 Goal=   None    Shift=    0.000
 RMSDP=2.78D-06 MaxDP=3.16D-05 DE=-3.03D-07 OVMax= 6.05D-05

 Cycle   8  Pass 1  IDiag  1:
 E= -154.090952445870     Delta-E=       -0.000000022725 Rises=F Damp=F
 DIIS: error= 3.09D-06 at cycle   8 NSaved=   8.
 NSaved= 8 IEnMin= 8 EnMin= -154.090952445870     IErMin= 8 ErrMin= 3.09D-06
 ErrMax= 3.09D-06  0.00D+00 EMaxC= 1.00D-01 BMatC= 1.15D-09 BMatP= 1.04D-08
 IDIUse=1 WtCom= 1.00D+00 WtEn= 0.00D+00
 Coeff-Com: -0.561D-04 0.996D-04 0.147D-02 0.321D-02-0.382D-02-0.106D+00
 Coeff-Com:  0.355D-01 0.107D+01
 Coeff:     -0.561D-04 0.996D-04 0.147D-02 0.321D-02-0.382D-02-0.106D+00
 Coeff:      0.355D-01 0.107D+01
 Gap=     0.614 Goal=   None    Shift=    0.000
 RMSDP=9.76D-07 MaxDP=1.39D-05 DE=-2.27D-08 OVMax= 2.38D-05

 Cycle   9  Pass 1  IDiag  1:
 E= -154.090952448675     Delta-E=       -0.000000002805 Rises=F Damp=F
 DIIS: error= 7.66D-07 at cycle   9 NSaved=   9.
 NSaved= 9 IEnMin= 9 EnMin= -154.090952448675     IErMin= 9 ErrMin= 7.66D-07
 ErrMax= 7.66D-07  0.00D+00 EMaxC= 1.00D-01 BMatC= 7.27D-11 BMatP= 1.15D-09
 IDIUse=1 WtCom= 1.00D+00 WtEn= 0.00D+00
 Coeff-Com:  0.111D-04-0.434D-04-0.497D-03-0.231D-03 0.355D-02 0.201D-01
 Coeff-Com: -0.890D-01-0.165D+00 0.123D+01
 Coeff:      0.111D-04-0.434D-04-0.497D-03-0.231D-03 0.355D-02 0.201D-01
 Coeff:     -0.890D-01-0.165D+00 0.123D+01
 Gap=     0.614 Goal=   None    Shift=    0.000
 RMSDP=2.85D-07 MaxDP=4.69D-06 DE=-2.81D-09 OVMax= 6.03D-06

 Cycle  10  Pass 1  IDiag  1:
 E= -154.090952448879     Delta-E=       -0.000000000203 Rises=F Damp=F
 DIIS: error= 1.70D-07 at cycle  10 NSaved=  10.
 NSaved=10 IEnMin=10 EnMin= -154.090952448879     IErMin=10 ErrMin= 1.70D-07
 ErrMax= 1.70D-07  0.00D+00 EMaxC= 1.00D-01 BMatC= 2.77D-12 BMatP= 7.27D-11
 IDIUse=1 WtCom= 1.00D+00 WtEn= 0.00D+00
 Coeff-Com:  0.151D-05-0.278D-07-0.223D-04-0.167D-03-0.235D-03 0.429D-02
 Coeff-Com:  0.612D-02-0.397D-01-0.116D+00 0.115D+01
 Coeff:      0.151D-05-0.278D-07-0.223D-04-0.167D-03-0.235D-03 0.429D-02
 Coeff:      0.612D-02-0.397D-01-0.116D+00 0.115D+01
 Gap=     0.614 Goal=   None    Shift=    0.000
 RMSDP=5.21D-08 MaxDP=9.16D-07 DE=-2.03D-10 OVMax= 1.34D-06

 Cycle  11  Pass 1  IDiag  1:
 E= -154.090952448887     Delta-E=       -0.000000000008 Rises=F Damp=F
 DIIS: error= 4.43D-08 at cycle  11 NSaved=  11.
 NSaved=11 IEnMin=11 EnMin= -154.090952448887     IErMin=11 ErrMin= 4.43D-08
 ErrMax= 4.43D-08  0.00D+00 EMaxC= 1.00D-01 BMatC= 1.88D-13 BMatP= 2.77D-12
 IDIUse=1 WtCom= 1.00D+00 WtEn= 0.00D+00
 Coeff-Com: -0.906D-06 0.192D-05 0.277D-04 0.654D-04-0.786D-04-0.225D-02
 Coeff-Com:  0.161D-02 0.197D-01-0.113D-01-0.405D+00 0.140D+01
 Coeff:     -0.906D-06 0.192D-05 0.277D-04 0.654D-04-0.786D-04-0.225D-02
 Coeff:      0.161D-02 0.197D-01-0.113D-01-0.405D+00 0.140D+01
 Gap=     0.614 Goal=   None    Shift=    0.000
 RMSDP=1.51D-08 MaxDP=2.54D-07 DE=-8.33D-12 OVMax= 5.17D-07

 Cycle  12  Pass 1  IDiag  1:
 E= -154.090952448887     Delta-E=       -0.000000000000 Rises=F Damp=F
 DIIS: error= 8.53D-09 at cycle  12 NSaved=  12.
 NSaved=12 IEnMin=12 EnMin= -154.090952448887     IErMin=12 ErrMin= 8.53D-09
 ErrMax= 8.53D-09  0.00D+00 EMaxC= 1.00D-01 BMatC= 8.89D-15 BMatP= 1.88D-13
 IDIUse=1 WtCom= 1.00D+00 WtEn= 0.00D+00
 Coeff-Com:  0.187D-06-0.574D-06-0.687D-05-0.910D-05 0.320D-04 0.437D-03
 Coeff-Com: -0.783D-03-0.367D-02 0.109D-01 0.443D-01-0.342D+00 0.129D+01
 Coeff:      0.187D-06-0.574D-06-0.687D-05-0.910D-05 0.320D-04 0.437D-03
 Coeff:     -0.783D-03-0.367D-02 0.109D-01 0.443D-01-0.342D+00 0.129D+01
 Gap=     0.614 Goal=   None    Shift=    0.000
 RMSDP=3.61D-09 MaxDP=5.37D-08 DE=-2.84D-13 OVMax= 1.27D-07

 SCF Done:  E(RHF) =  -154.090952449     A.U. after   12 cycles
            NFock= 12  Conv=0.36D-08     -V/T= 2.0009
 KE= 1.539466881621D+02 PE=-5.259267663315D+02 EE= 1.358650603526D+02
 Leave Link  502 at Thu Dec 16 11:32:11 2021, MaxMem=   536870912 cpu:               1.4 elap:               0.4
 (Enter /opt/gaussian/g16/sse4/g16/l801.exe)
 ExpMin= 1.22D-01 ExpMax= 1.17D+04 ExpMxC= 4.01D+02 IAcc=3 IRadAn=         5 AccDes= 0.00D+00
 HarFok:  IExCor=  205 AccDes= 0.00D+00 IRadAn=         5 IDoV=-2 UseB2=F ITyADJ=14
 ICtDFT= 12500011 ScaDFX=  1.000000  1.000000  1.000000  1.000000
 Largest valence mixing into a core orbital is  1.06D-04
 Largest core mixing into a valence orbital is  4.24D-05
 Range of M.O.s used for correlation:     4    72
 NBasis=    72 NAE=    13 NBE=    13 NFC=     3 NFV=     0
 NROrb=     69 NOA=    10 NOB=    10 NVA=    59 NVB=    59
 Leave Link  801 at Thu Dec 16 11:32:11 2021, MaxMem=   536870912 cpu:               0.5 elap:               0.1
 (Enter /opt/gaussian/g16/sse4/g16/l906.exe)
 Frozen-core derivative calculation, NFC=   3 NFV=   0.
 FulOut=F Deriv=T AODrv=T NAtomX=     9
   MMem=         609  MDisk=          10 MDiskD=          10
  W3Min=       70200 MinDsk=      171950 NBas6D=          75
 NBas2D=        2931    NTT=        2850    LW2=     2040000
    MDV=   536767702 MDiskM=       99031 NBas2p=        2930
 Fully direct method using O(ONN) memory.
 IMap=   1   2   3   4   5   6   7   8   9  10  11  12  13
 JobTyp=1 Pass  1:  I=   4 to  13 NPSUse=  4 ParTrn=T ParDer=T DoDerP=T.
 Spin components of T(2) and E(2):
     alpha-alpha T2 =       0.1734222338D-01 E2=     -0.5672454399D-01
     alpha-beta  T2 =       0.1108820464D+00 E2=     -0.3678984818D+00
     beta-beta   T2 =       0.1734222338D-01 E2=     -0.5672454399D-01
 The integrals were generated   1 times.
 ANorm=    0.1070311400D+01
 E2 =    -0.4813475697D+00 EUMP2 =    -0.15457230001863D+03
 Leave Link  906 at Thu Dec 16 11:32:13 2021, MaxMem=   536870912 cpu:               3.2 elap:               1.0
 (Enter /opt/gaussian/g16/sse4/g16/l1002.exe)
 Minotr:  Closed shell wavefunction.
          Computing MP2/KS-MP2 derivatives.
          Using Z-Vector for PSCF gradient.
          Skipping F1 and S1 gradient terms here.
          IDoAtm=111111111
          Frozen-core window.
          Direct CPHF calculation.
          Differentiating once with respect to electric field.
                with respect to dipole field.
          Differentiating once with respect to nuclear coordinates.
          Requested convergence is 1.0D-10 RMS, and 1.0D-09 maximum.
          NewPWx=F KeepS1=T KeepF1=T KeepIn=T MapXYZ=F SortEE=F KeepMc=T.
 Keep R1 ints in memory in canonical form, NReq=4338649.
 FoFCou: FMM=F IPFlag=           0 FMFlag=           0 FMFlg1=           0
         NFxFlg=           0 DoJE=F BraDBF=F KetDBF=F FulRan=T
         wScrn=  0.000000 ICntrl=       600 IOpCl=  0 I1Cent=           0 NGrid=           0
         NMat0=    1 NMatS0=   2628 NMatT0=    0 NMatD0=    1 NMtDS0=    0 NMtDT0=    0
 Symmetry not used in FoFCou.
 Two-electron integral symmetry not used.
          MDV=     536870912 using IRadAn=       5.
          Solving linear equations separately, MaxMat=       0.
          There are     1 degrees of freedom in the 1st order CPHF.  IDoFFX=0 NUNeed=     1.
 LinEq1:  Iter=  0 NonCon=     1 RMS=4.38D-03 Max=3.00D-02 NDo=     1
 AX will form     1 AO Fock derivatives at one time.
 LinEq1:  Iter=  1 NonCon=     1 RMS=9.86D-04 Max=6.25D-03 NDo=     1
 LinEq1:  Iter=  2 NonCon=     1 RMS=2.69D-04 Max=1.67D-03 NDo=     1
 LinEq1:  Iter=  3 NonCon=     1 RMS=7.55D-05 Max=4.27D-04 NDo=     1
 LinEq1:  Iter=  4 NonCon=     1 RMS=2.12D-05 Max=2.03D-04 NDo=     1
 LinEq1:  Iter=  5 NonCon=     1 RMS=3.48D-06 Max=2.19D-05 NDo=     1
 LinEq1:  Iter=  6 NonCon=     1 RMS=6.84D-07 Max=3.39D-06 NDo=     1
 LinEq1:  Iter=  7 NonCon=     1 RMS=1.68D-07 Max=9.67D-07 NDo=     1
 LinEq1:  Iter=  8 NonCon=     1 RMS=4.68D-08 Max=2.80D-07 NDo=     1
 LinEq1:  Iter=  9 NonCon=     1 RMS=8.85D-09 Max=5.08D-08 NDo=     1
 LinEq1:  Iter= 10 NonCon=     1 RMS=1.88D-09 Max=1.61D-08 NDo=     1
 LinEq1:  Iter= 11 NonCon=     1 RMS=2.81D-10 Max=2.07D-09 NDo=     1
 LinEq1:  Iter= 12 NonCon=     0 RMS=5.40D-11 Max=4.16D-10 NDo=     1
 Linear equations converged to 1.000D-10 1.000D-09 after    12 iterations.
 End of Minotr F.D. properties file   721 does not exist.
 End of Minotr F.D. properties file   722 does not exist.
 End of Minotr F.D. properties file   788 does not exist.
 Leave Link 1002 at Thu Dec 16 11:32:14 2021, MaxMem=   536870912 cpu:               2.4 elap:               0.7
 (Enter /opt/gaussian/g16/sse4/g16/l601.exe)
 Copying SCF densities to generalized density rwf, IOpCl= 0 IROHF=0.

 **********************************************************************

            Population analysis using the SCF density.

 **********************************************************************

 Orbital symmetries:
       Occupied  (A) (A) (A) (A) (A) (A) (A) (A) (A) (A) (A) (A)
                 (A)
       Virtual   (A) (A) (A) (A) (A) (A) (A) (A) (A) (A) (A) (A)
                 (A) (A) (A) (A) (A) (A) (A) (A) (A) (A) (A) (A)
                 (A) (A) (A) (A) (A) (A) (A) (A) (A) (A) (A) (A)
                 (A) (A) (A) (A) (A) (A) (A) (A) (A) (A) (A) (A)
                 (A) (A) (A) (A) (A) (A) (A) (A) (A) (A) (A)
 The electronic state is 1-A.
 Alpha  occ. eigenvalues --  -20.54719 -11.27604 -11.22386  -1.34952  -1.01003
 Alpha  occ. eigenvalues --   -0.84361  -0.67884  -0.62075  -0.60261  -0.53879
 Alpha  occ. eigenvalues --   -0.52300  -0.47560  -0.43515
 Alpha virt. eigenvalues --    0.17864   0.21715   0.23380   0.25532   0.26685
 Alpha virt. eigenvalues --    0.28647   0.38145   0.40070   0.59603   0.61503
 Alpha virt. eigenvalues --    0.66562   0.72939   0.75018   0.81035   0.85028
 Alpha virt. eigenvalues --    0.88181   0.88686   0.89711   0.91038   0.92955
 Alpha virt. eigenvalues --    1.11923   1.14071   1.16734   1.27850   1.32821
 Alpha virt. eigenvalues --    1.38222   1.46034   1.50817   1.57005   1.65060
 Alpha virt. eigenvalues --    1.68669   1.74372   1.85357   1.87558   1.89784
 Alpha virt. eigenvalues --    1.93158   1.94235   1.95386   1.97453   2.04664
 Alpha virt. eigenvalues --    2.09125   2.15711   2.26292   2.27617   2.34730
 Alpha virt. eigenvalues --    2.42094   2.51036   2.52311   2.54270   2.75138
 Alpha virt. eigenvalues --    2.76842   2.83079   2.88208   2.91636   3.31609
 Alpha virt. eigenvalues --    3.40013   3.45643   3.63045   4.09470
          Condensed to atoms (all electrons):
               1          2          3          4          5          6
     1  C    4.572130   0.437323  -0.046821   0.389875   0.402435   0.402944
     2  C    0.437323   4.393438   0.305585  -0.024081  -0.028293  -0.026841
     3  O   -0.046821   0.305585   7.824371   0.004133  -0.000603   0.003716
     4  H    0.389875  -0.024081   0.004133   0.648271  -0.022219  -0.020325
     5  H    0.402435  -0.028293  -0.000603  -0.022219   0.657248  -0.030791
     6  H    0.402944  -0.026841   0.003716  -0.020325  -0.030791   0.629641
     7  H   -0.039584   0.410018  -0.031404  -0.000308  -0.009247   0.008546
     8  H   -0.031895   0.407971  -0.021221  -0.002281   0.007432  -0.008799
     9  H   -0.004139  -0.047821   0.358203  -0.000042   0.005164  -0.001184
               7          8          9
     1  C   -0.039584  -0.031895  -0.004139
     2  C    0.410018   0.407971  -0.047821
     3  O   -0.031404  -0.021221   0.358203
     4  H   -0.000308  -0.002281  -0.000042
     5  H   -0.009247   0.007432   0.005164
     6  H    0.008546  -0.008799  -0.001184
     7  H    0.692893  -0.039026  -0.006450
     8  H   -0.039026   0.641838   0.007645
     9  H   -0.006450   0.007645   0.524933
 Mulliken charges:
               1
     1  C   -0.082270
     2  C    0.172700
     3  O   -0.395959
     4  H    0.026977
     5  H    0.018873
     6  H    0.043092
     7  H    0.014561
     8  H    0.038335
     9  H    0.163690
 Sum of Mulliken charges =  -0.00000
 Mulliken charges with hydrogens summed into heavy atoms:
               1
     1  C    0.006673
     2  C    0.225596
     3  O   -0.232269
 Electronic spatial extent (au):  <R**2>=            191.5950
 Charge=             -0.0000 electrons
 Dipole moment (field-independent basis, Debye):
    X=             -1.2718    Y=             -0.1209    Z=              1.2166  Tot=              1.7642
 Quadrupole moment (field-independent basis, Debye-Ang):
   XX=            -22.5585   YY=            -18.3333   ZZ=            -19.0395
   XY=             -0.9471   XZ=              1.8394   YZ=             -1.4923
 Traceless Quadrupole moment (field-independent basis, Debye-Ang):
   XX=             -2.5814   YY=              1.6438   ZZ=              0.9375
   XY=             -0.9471   XZ=              1.8394   YZ=             -1.4923
 Octapole moment (field-independent basis, Debye-Ang**2):
  XXX=              2.1852  YYY=             -2.3507  ZZZ=              0.3620  XYY=              3.4090
  XXY=             -0.9579  XXZ=              2.1664  XZZ=              2.6355  YZZ=             -0.9711
  YYZ=              0.9252  XYZ=             -1.7623
 Hexadecapole moment (field-independent basis, Debye-Ang**3):
 XXXX=           -157.2172 YYYY=            -55.7590 ZZZZ=            -32.9880 XXXY=             -6.3308
 XXXZ=              2.8115 YYYX=             -4.3675 YYYZ=             -2.6283 ZZZX=              1.5212
 ZZZY=             -1.0351 XXYY=            -32.4401 XXZZ=            -30.6222 YYZZ=            -13.1728
 XXYZ=             -1.9548 YYXZ=              1.4406 ZZXY=             -0.8015
 N-N= 8.202406536796D+01 E-N=-5.259267663067D+02  KE= 1.539466881621D+02
 No NMR shielding tensors so no spin-rotation constants.
 Leave Link  601 at Thu Dec 16 11:32:14 2021, MaxMem=   536870912 cpu:               0.5 elap:               0.1
 (Enter /opt/gaussian/g16/sse4/g16/l701.exe)
 ... and contract with generalized density number  2.
 Compute integral first derivatives.
 Leave Link  701 at Thu Dec 16 11:32:14 2021, MaxMem=   536870912 cpu:               0.5 elap:               0.1
 (Enter /opt/gaussian/g16/sse4/g16/l702.exe)
 L702 exits ... SP integral derivatives will be done elsewhere.
 Leave Link  702 at Thu Dec 16 11:32:14 2021, MaxMem=   536870912 cpu:               0.1 elap:               0.0
 (Enter /opt/gaussian/g16/sse4/g16/l703.exe)
 Integral derivatives from FoFJK, PRISM(SPDF).
 Compute integral first derivatives, UseDBF=F ICtDFT=           0.
 Calling FoFJK, ICntrl=  10002127 FMM=F ISym2X=0 I1Cent= 0 IOpClX= 0 NMat=1 NMatS=1 NMatT=0.
 FoFJK:  IHMeth= 1 ICntrl=10002127 DoSepK=F KAlg= 0 I1Cent=           0 FoldK=F
 IRaf=         0 NMat=       1 IRICut=       1 DoRegI=T DoRafI=F ISym2E= 0 IDoP0=0 IntGTp=1.
 FoFCou: FMM=F IPFlag=           0 FMFlag=      100000 FMFlg1=         800
         NFxFlg=           0 DoJE=F BraDBF=F KetDBF=F FulRan=T
         wScrn=  0.000000 ICntrl=  10002127 IOpCl=  0 I1Cent=           0 NGrid=           0
         NMat0=    1 NMatS0=      1 NMatT0=    0 NMatD0=    1 NMtDS0=    0 NMtDT0=    0
 Symmetry not used in FoFCou.
 Leave Link  703 at Thu Dec 16 11:32:15 2021, MaxMem=   536870912 cpu:               1.5 elap:               0.4
 (Enter /opt/gaussian/g16/sse4/g16/l716.exe)
 Dipole        =-4.19762376D-01-7.33965237D-02 4.44335373D-01
 ***** Axes restored to original set *****
 -------------------------------------------------------------------
 Center     Atomic                   Forces (Hartrees/Bohr)
 Number     Number              X              Y              Z
 -------------------------------------------------------------------
      1        6          -0.000592683   -0.002312100    0.003801063
      2        6          -0.005727389    0.008610335   -0.014276886
      3        8           0.006576948    0.009081951    0.000177630
      4        1          -0.004426365   -0.005277853    0.002238475
      5        1          -0.001823987   -0.002286871   -0.006058763
      6        1          -0.000151817    0.003804055    0.003413049
      7        1           0.001224778   -0.011436520    0.000203477
      8        1           0.004150741    0.002890591    0.003445433
      9        1           0.000769775   -0.003073589    0.007056522
 -------------------------------------------------------------------
 Cartesian Forces:  Max     0.014276886 RMS     0.005477824
 Leave Link  716 at Thu Dec 16 11:32:15 2021, MaxMem=   536870912 cpu:               0.1 elap:               0.0
 (Enter /opt/gaussian/g16/sse4/g16/l103.exe)

 GradGradGradGradGradGradGradGradGradGradGradGradGradGradGradGradGradGrad
 Berny optimization.
 FormGI is forming the generalized inverse of G from B-inverse, IUseBI=4.
 Internal  Forces:  Max     0.010006272 RMS     0.004471964
 Search for a local minimum.
 Step number   1 out of a maximum of   43
 All quantities printed in internal units (Hartrees-Bohrs-Radians)
 RMS Force = .44720D-02 SwitMx=.10000D-02 MixMth= 1
 Mixed Optimization -- RFO/linear search
 Second derivative matrix not updated -- first step.
 ITU=  0
     Eigenvalues ---    0.00573   0.01425   0.05213   0.05649   0.05770
     Eigenvalues ---    0.05827   0.11505   0.13798   0.16000   0.16000
     Eigenvalues ---    0.16000   0.16000   0.22019   0.30892   0.34245
     Eigenvalues ---    0.34247   0.34331   0.34370   0.34403   0.42433
     Eigenvalues ---    0.52888
 RFO step:  Lambda=-3.54260656D-03 EMin= 5.72710188D-03
 Linear search not attempted -- first point.
 Iteration  1 RMS(Cart)=  0.03818100 RMS(Int)=  0.00101109
 Iteration  2 RMS(Cart)=  0.00088434 RMS(Int)=  0.00064792
 Iteration  3 RMS(Cart)=  0.00000058 RMS(Int)=  0.00064792
 ITry= 1 IFail=0 DXMaxC= 8.26D-02 DCOld= 1.00D+10 DXMaxT= 3.00D-01 DXLimC= 3.00D+00 Rises=F
 Variable       Old X    -DE/DX   Delta X   Delta X   Delta X     New X
                                 (Linear)    (Quad)   (Total)
    R1        2.86219   0.00702   0.00000   0.02247   0.02247   2.88467
    R2        2.06655   0.00688   0.00000   0.01980   0.01980   2.08635
    R3        2.06918   0.00629   0.00000   0.01819   0.01819   2.08737
    R4        2.06915   0.00472   0.00000   0.01363   0.01363   2.08278
    R5        2.68376   0.00406   0.00000   0.00949   0.00949   2.69325
    R6        2.06775   0.00956   0.00000   0.02756   0.02756   2.09531
    R7        2.06711   0.00470   0.00000   0.01353   0.01353   2.08063
    R8        1.83759  -0.00683   0.00000  -0.01282  -0.01282   1.82476
    A1        1.93535   0.00326   0.00000   0.01811   0.01815   1.95351
    A2        1.93211  -0.00081   0.00000  -0.00511  -0.00510   1.92701
    A3        1.93034  -0.00245   0.00000  -0.01298  -0.01296   1.91738
    A4        1.89836  -0.00177   0.00000  -0.01461  -0.01458   1.88378
    A5        1.90012  -0.00039   0.00000  -0.00210  -0.00204   1.89808
    A6        1.86580   0.00210   0.00000   0.01649   0.01648   1.88228
    A7        1.91948   0.01001   0.00000   0.05140   0.05053   1.97001
    A8        1.93772  -0.00500   0.00000  -0.01387  -0.01600   1.92172
    A9        1.92834   0.00023   0.00000  -0.01063  -0.01029   1.91806
   A10        1.89756   0.00230   0.00000   0.05740   0.05643   1.95398
   A11        1.88794  -0.00783   0.00000  -0.06460  -0.06384   1.82410
   A12        1.89168   0.00010   0.00000  -0.02102  -0.02077   1.87091
   A13        1.87703  -0.00668   0.00000  -0.04084  -0.04084   1.83618
    D1       -3.12564   0.00304   0.00000   0.05695   0.05706  -3.06859
    D2        1.05667  -0.00320   0.00000  -0.03975  -0.03967   1.01699
    D3       -1.04270  -0.00018   0.00000   0.00284   0.00267  -1.04003
    D4        1.04883   0.00363   0.00000   0.06672   0.06683   1.11566
    D5       -1.05205  -0.00261   0.00000  -0.02998  -0.02989  -1.08194
    D6        3.13177   0.00041   0.00000   0.01261   0.01245  -3.13896
    D7       -1.01589   0.00307   0.00000   0.05768   0.05776  -0.95813
    D8       -3.11677  -0.00316   0.00000  -0.03902  -0.03897   3.12745
    D9        1.06705  -0.00015   0.00000   0.00356   0.00338   1.07043
   D10       -1.04501  -0.00009   0.00000  -0.02722  -0.02895  -1.07396
   D11        1.07997   0.00145   0.00000   0.02430   0.02622   1.10619
   D12        3.13073  -0.00151   0.00000  -0.00505  -0.00525   3.12547
         Item               Value     Threshold  Converged?
 Maximum Force            0.010006     0.000450     NO 
 RMS     Force            0.004472     0.000300     NO 
 Maximum Displacement     0.082580     0.001800     NO 
 RMS     Displacement     0.037825     0.001200     NO 
 Predicted change in Energy=-1.849289D-03
 Lowest energy point so far.  Saving SCF results.
 GradGradGradGradGradGradGradGradGradGradGradGradGradGradGradGradGradGrad

 Leave Link  103 at Thu Dec 16 11:32:15 2021, MaxMem=   536870912 cpu:               0.0 elap:               0.0
 (Enter /opt/gaussian/g16/sse4/g16/l202.exe)
                          Input orientation:                          
 ---------------------------------------------------------------------
 Center     Atomic      Atomic             Coordinates (Angstroms)
 Number     Number       Type             X           Y           Z
 ---------------------------------------------------------------------
      1          6           0        0.995604    0.067435   -0.058200
      2          6           0        2.521419    0.089216   -0.098359
      3          8           0        3.042785    1.267480   -0.707523
      4          1           0        0.609934   -0.814976    0.481738
      5          1           0        0.583567    0.046077   -1.082840
      6          1           0        0.621097    0.977776    0.437558
      7          1           0        2.903140   -0.831891   -0.583398
      8          1           0        2.923005    0.107702    0.926647
      9          1           0        2.708230    1.253610   -1.613233
 ---------------------------------------------------------------------
                    Distance matrix (angstroms):
                    1          2          3          4          5
     1  C    0.000000
     2  C    1.526499   0.000000
     3  O    2.460219   1.425205   0.000000
     4  H    1.104049   2.192681   3.416098   0.000000
     5  H    1.104589   2.174013   2.771360   1.786060   0.000000
     6  H    1.102158   2.165172   2.694385   1.793331   1.783558
     7  H    2.173318   1.108788   2.107669   2.528555   2.529957
     8  H    2.164814   1.101023   2.007473   2.529738   3.084608
     9  H    2.599659   1.919780   0.965624   3.615356   2.500729
                    6          7          8          9
     6  H    0.000000
     7  H    3.086254   0.000000
     8  H    2.508987   1.778614   0.000000
     9  H    2.939039   2.334067   2.794678   0.000000
 Stoichiometry    C2H6O
 Framework group  C1[X(C2H6O)]
 Deg. of freedom    21
 Full point group                 C1      NOp   1
 RotChk:  IX=0 Diff= 6.05D-02
 Largest Abelian subgroup         C1      NOp   1
 Largest concise Abelian subgroup C1      NOp   1
                         Standard orientation:                         
 ---------------------------------------------------------------------
 Center     Atomic      Atomic             Coordinates (Angstroms)
 Number     Number       Type             X           Y           Z
 ---------------------------------------------------------------------
      1          6           0       -1.216238   -0.237052   -0.022017
      2          6           0        0.086233    0.555999    0.047543
      3          8           0        1.242355   -0.262843   -0.107667
      4          1           0       -2.102123    0.420107    0.025648
      5          1           0       -1.277375   -0.951770    0.817957
      6          1           0       -1.253406   -0.814371   -0.960139
      7          1           0        0.121410    1.149840    0.983239
      8          1           0        0.137167    1.267181   -0.791430
      9          1           0        1.215519   -0.881922    0.632907
 ---------------------------------------------------------------------
 Rotational constants (GHZ):          34.1927884           9.1345521           8.0811822
 Leave Link  202 at Thu Dec 16 11:32:15 2021, MaxMem=   536870912 cpu:               0.0 elap:               0.0
 (Enter /opt/gaussian/g16/sse4/g16/l301.exe)
 Standard basis: CC-pVDZ (5D, 7F)
 Ernie: Thresh=  0.10000D-02 Tol=  0.10000D-05 Strict=F.
 Ernie:  6 primitive shells out of 96 were deleted.
 There are    75 symmetry adapted cartesian basis functions of A   symmetry.
 There are    72 symmetry adapted basis functions of A   symmetry.
    72 basis functions,   141 primitive gaussians,    75 cartesian basis functions
    13 alpha electrons       13 beta electrons
       nuclear repulsion energy        81.3434538681 Hartrees.
 IExCor=    0 DFT=F Ex=HF Corr=None ExCW=0 ScaHFX=  1.000000
 ScaDFX=  1.000000  1.000000  1.000000  1.000000 ScalE2=  1.000000  1.000000
 IRadAn=      5 IRanWt=     -1 IRanGd=            0 ICorTp=0 IEmpDi=  4
 NAtoms=    9 NActive=    9 NUniq=    9 SFac= 1.00D+00 NAtFMM=   60 NAOKFM=F Big=F
 Integral buffers will be    131072 words long.
 Raffenetti 1 integral format.
 Two-electron integral symmetry is turned on.
 Leave Link  301 at Thu Dec 16 11:32:15 2021, MaxMem=   536870912 cpu:               0.2 elap:               0.0
 (Enter /opt/gaussian/g16/sse4/g16/l302.exe)
 NPDir=0 NMtPBC=     1 NCelOv=     1 NCel=       1 NClECP=     1 NCelD=      1
         NCelK=      1 NCelE2=     1 NClLst=     1 CellRange=     0.0.
 One-electron integrals computed using PRISM.
 One-electron integral symmetry used in STVInt
 NBasis=    72 RedAO= T EigKep=  6.58D-03  NBF=    72
 NBsUse=    72 1.00D-06 EigRej= -1.00D+00 NBFU=    72
 Leave Link  302 at Thu Dec 16 11:32:16 2021, MaxMem=   536870912 cpu:               0.5 elap:               0.1
 (Enter /opt/gaussian/g16/sse4/g16/l303.exe)
 DipDrv:  MaxL=1.
 Leave Link  303 at Thu Dec 16 11:32:16 2021, MaxMem=   536870912 cpu:               0.1 elap:               0.0
 (Enter /opt/gaussian/g16/sse4/g16/l401.exe)
 Initial guess from the checkpoint file:  "MP2_Ethanol_gaus.chk"
 B after Tr=    -0.000000   -0.000000   -0.000000
         Rot=    0.999876    0.015140    0.004172    0.000879 Ang=   1.80 deg.
 Guess basis will be translated and rotated to current coordinates.
 JPrj=2 DoOrth=T DoCkMO=T.
 Generating alternative initial guess.
 ExpMin= 1.22D-01 ExpMax= 1.17D+04 ExpMxC= 4.01D+02 IAcc=2 IRadAn=         4 AccDes= 0.00D+00
 Harris functional with IExCor=  205 and IRadAn=       4 diagonalized for initial guess.
 HarFok:  IExCor=  205 AccDes= 0.00D+00 IRadAn=         4 IDoV= 1 UseB2=F ITyADJ=14
 ICtDFT=  3500011 ScaDFX=  1.000000  1.000000  1.000000  1.000000
 FoFCou: FMM=F IPFlag=           0 FMFlag=      100000 FMFlg1=           0
         NFxFlg=           0 DoJE=T BraDBF=F KetDBF=T FulRan=T
         wScrn=  0.000000 ICntrl=       500 IOpCl=  0 I1Cent=   200000004 NGrid=           0
         NMat0=    1 NMatS0=      1 NMatT0=    0 NMatD0=    1 NMtDS0=    0 NMtDT0=    0
 Petite list used in FoFCou.
 Harris En= -154.352591423626    
 Leave Link  401 at Thu Dec 16 11:32:16 2021, MaxMem=   536870912 cpu:               1.3 elap:               0.3
 (Enter /opt/gaussian/g16/sse4/g16/l502.exe)
 Keep R1 ints in memory in canonical form, NReq=4336457.
 FoFCou: FMM=F IPFlag=           0 FMFlag=           0 FMFlg1=           0
         NFxFlg=           0 DoJE=F BraDBF=F KetDBF=F FulRan=T
         wScrn=  0.000000 ICntrl=       600 IOpCl=  0 I1Cent=           0 NGrid=           0
         NMat0=    1 NMatS0=   2628 NMatT0=    0 NMatD0=    1 NMtDS0=    0 NMtDT0=    0
 Symmetry not used in FoFCou.
 Two-electron integral symmetry not used.
 Closed shell SCF:
 Using DIIS extrapolation, IDIIS=  1040.
 NGot=   536870912 LenX=   533403697 LenY=   533397631
 Requested convergence on RMS density matrix=1.00D-08 within 128 cycles.
 Requested convergence on MAX density matrix=1.00D-06.
 Requested convergence on             energy=1.00D-06.
 No special actions if energy rises.

 Cycle   1  Pass 1  IDiag  1:
 E= -154.089811823457    
 DIIS: error= 2.00D-03 at cycle   1 NSaved=   1.
 NSaved= 1 IEnMin= 1 EnMin= -154.089811823457     IErMin= 1 ErrMin= 2.00D-03
 ErrMax= 2.00D-03  0.00D+00 EMaxC= 1.00D-01 BMatC= 7.34D-04 BMatP= 7.34D-04
 IDIUse=3 WtCom= 9.80D-01 WtEn= 2.00D-02
 Coeff-Com:  0.100D+01
 Coeff-En:   0.100D+01
 Coeff:      0.100D+01
 Gap=     0.978 Goal=   None    Shift=    0.000
 GapD=    0.978 DampG=2.000 DampE=1.000 DampFc=2.0000 IDamp=-1.
 RMSDP=4.42D-04 MaxDP=4.09D-03              OVMax= 6.72D-03

 Cycle   2  Pass 1  IDiag  1:
 E= -154.090803246214     Delta-E=       -0.000991422757 Rises=F Damp=F
 DIIS: error= 5.75D-04 at cycle   2 NSaved=   2.
 NSaved= 2 IEnMin= 2 EnMin= -154.090803246214     IErMin= 2 ErrMin= 5.75D-04
 ErrMax= 5.75D-04  0.00D+00 EMaxC= 1.00D-01 BMatC= 4.51D-05 BMatP= 7.34D-04
 IDIUse=3 WtCom= 9.94D-01 WtEn= 5.75D-03
 Coeff-Com: -0.220D+00 0.122D+01
 Coeff-En:   0.000D+00 0.100D+01
 Coeff:     -0.219D+00 0.122D+01
 Gap=     0.616 Goal=   None    Shift=    0.000
 RMSDP=1.54D-04 MaxDP=1.36D-03 DE=-9.91D-04 OVMax= 2.92D-03

 Cycle   3  Pass 1  IDiag  1:
 E= -154.090894782248     Delta-E=       -0.000091536035 Rises=F Damp=F
 DIIS: error= 1.89D-04 at cycle   3 NSaved=   3.
 NSaved= 3 IEnMin= 3 EnMin= -154.090894782248     IErMin= 3 ErrMin= 1.89D-04
 ErrMax= 1.89D-04  0.00D+00 EMaxC= 1.00D-01 BMatC= 3.45D-06 BMatP= 4.51D-05
 IDIUse=3 WtCom= 9.98D-01 WtEn= 1.89D-03
 Coeff-Com: -0.488D-01 0.106D+00 0.943D+00
 Coeff-En:   0.000D+00 0.000D+00 0.100D+01
 Coeff:     -0.487D-01 0.106D+00 0.943D+00
 Gap=     0.615 Goal=   None    Shift=    0.000
 RMSDP=3.45D-05 MaxDP=3.50D-04 DE=-9.15D-05 OVMax= 7.09D-04

 Cycle   4  Pass 1  IDiag  1:
 E= -154.090900495952     Delta-E=       -0.000005713703 Rises=F Damp=F
 DIIS: error= 6.08D-05 at cycle   4 NSaved=   4.
 NSaved= 4 IEnMin= 4 EnMin= -154.090900495952     IErMin= 4 ErrMin= 6.08D-05
 ErrMax= 6.08D-05  0.00D+00 EMaxC= 1.00D-01 BMatC= 3.72D-07 BMatP= 3.45D-06
 IDIUse=1 WtCom= 1.00D+00 WtEn= 0.00D+00
 Coeff-Com:  0.222D-01-0.138D+00 0.409D-01 0.107D+01
 Coeff:      0.222D-01-0.138D+00 0.409D-01 0.107D+01
 Gap=     0.615 Goal=   None    Shift=    0.000
 RMSDP=1.59D-05 MaxDP=2.28D-04 DE=-5.71D-06 OVMax= 3.15D-04

 Cycle   5  Pass 1  IDiag  1:
 E= -154.090901268015     Delta-E=       -0.000000772064 Rises=F Damp=F
 DIIS: error= 9.99D-06 at cycle   5 NSaved=   5.
 NSaved= 5 IEnMin= 5 EnMin= -154.090901268015     IErMin= 5 ErrMin= 9.99D-06
 ErrMax= 9.99D-06  0.00D+00 EMaxC= 1.00D-01 BMatC= 1.79D-08 BMatP= 3.72D-07
 IDIUse=1 WtCom= 1.00D+00 WtEn= 0.00D+00
 Coeff-Com:  0.289D-02-0.918D-02-0.407D-01 0.435D-01 0.100D+01
 Coeff:      0.289D-02-0.918D-02-0.407D-01 0.435D-01 0.100D+01
 Gap=     0.615 Goal=   None    Shift=    0.000
 RMSDP=3.36D-06 MaxDP=5.28D-05 DE=-7.72D-07 OVMax= 5.90D-05

 Cycle   6  Pass 1  IDiag  1:
 E= -154.090901298672     Delta-E=       -0.000000030656 Rises=F Damp=F
 DIIS: error= 6.04D-06 at cycle   6 NSaved=   6.
 NSaved= 6 IEnMin= 6 EnMin= -154.090901298672     IErMin= 6 ErrMin= 6.04D-06
 ErrMax= 6.04D-06  0.00D+00 EMaxC= 1.00D-01 BMatC= 2.91D-09 BMatP= 1.79D-08
 IDIUse=1 WtCom= 1.00D+00 WtEn= 0.00D+00
 Coeff-Com: -0.176D-02 0.129D-01-0.133D-01-0.103D+00 0.197D+00 0.908D+00
 Coeff:     -0.176D-02 0.129D-01-0.133D-01-0.103D+00 0.197D+00 0.908D+00
 Gap=     0.615 Goal=   None    Shift=    0.000
 RMSDP=1.11D-06 MaxDP=2.61D-05 DE=-3.07D-08 OVMax= 2.20D-05

 Cycle   7  Pass 1  IDiag  1:
 E= -154.090901302982     Delta-E=       -0.000000004310 Rises=F Damp=F
 DIIS: error= 1.31D-06 at cycle   7 NSaved=   7.
 NSaved= 7 IEnMin= 7 EnMin= -154.090901302982     IErMin= 7 ErrMin= 1.31D-06
 ErrMax= 1.31D-06  0.00D+00 EMaxC= 1.00D-01 BMatC= 2.14D-10 BMatP= 2.91D-09
 IDIUse=1 WtCom= 1.00D+00 WtEn= 0.00D+00
 Coeff-Com: -0.300D-03 0.977D-03 0.389D-02-0.620D-02-0.106D+00 0.179D-01
 Coeff-Com:  0.109D+01
 Coeff:     -0.300D-03 0.977D-03 0.389D-02-0.620D-02-0.106D+00 0.179D-01
 Coeff:      0.109D+01
 Gap=     0.615 Goal=   None    Shift=    0.000
 RMSDP=4.25D-07 MaxDP=6.58D-06 DE=-4.31D-09 OVMax= 7.54D-06

 Cycle   8  Pass 1  IDiag  1:
 E= -154.090901303435     Delta-E=       -0.000000000453 Rises=F Damp=F
 DIIS: error= 2.64D-07 at cycle   8 NSaved=   8.
 NSaved= 8 IEnMin= 8 EnMin= -154.090901303435     IErMin= 8 ErrMin= 2.64D-07
 ErrMax= 2.64D-07  0.00D+00 EMaxC= 1.00D-01 BMatC= 1.02D-11 BMatP= 2.14D-10
 IDIUse=1 WtCom= 1.00D+00 WtEn= 0.00D+00
 Coeff-Com:  0.134D-03-0.826D-03 0.296D-03 0.655D-02 0.437D-02-0.548D-01
 Coeff-Com: -0.168D+00 0.121D+01
 Coeff:      0.134D-03-0.826D-03 0.296D-03 0.655D-02 0.437D-02-0.548D-01
 Coeff:     -0.168D+00 0.121D+01
 Gap=     0.615 Goal=   None    Shift=    0.000
 RMSDP=1.15D-07 MaxDP=1.39D-06 DE=-4.53D-10 OVMax= 2.28D-06

 Cycle   9  Pass 1  IDiag  1:
 E= -154.090901303465     Delta-E=       -0.000000000030 Rises=F Damp=F
 DIIS: error= 6.80D-08 at cycle   9 NSaved=   9.
 NSaved= 9 IEnMin= 9 EnMin= -154.090901303465     IErMin= 9 ErrMin= 6.80D-08
 ErrMax= 6.80D-08  0.00D+00 EMaxC= 1.00D-01 BMatC= 6.32D-13 BMatP= 1.02D-11
 IDIUse=1 WtCom= 1.00D+00 WtEn= 0.00D+00
 Coeff-Com:  0.105D-04-0.136D-04-0.237D-03 0.158D-04 0.608D-02 0.248D-02
 Coeff-Com: -0.608D-01-0.450D-01 0.110D+01
 Coeff:      0.105D-04-0.136D-04-0.237D-03 0.158D-04 0.608D-02 0.248D-02
 Coeff:     -0.608D-01-0.450D-01 0.110D+01
 Gap=     0.615 Goal=   None    Shift=    0.000
 RMSDP=2.76D-08 MaxDP=3.10D-07 DE=-3.00D-11 OVMax= 6.13D-07

 Cycle  10  Pass 1  IDiag  1:
 E= -154.090901303466     Delta-E=       -0.000000000001 Rises=F Damp=F
 DIIS: error= 1.66D-08 at cycle  10 NSaved=  10.
 NSaved=10 IEnMin=10 EnMin= -154.090901303466     IErMin=10 ErrMin= 1.66D-08
 ErrMax= 1.66D-08  0.00D+00 EMaxC= 1.00D-01 BMatC= 5.35D-14 BMatP= 6.32D-13
 IDIUse=1 WtCom= 1.00D+00 WtEn= 0.00D+00
 Coeff-Com: -0.924D-05 0.614D-04-0.442D-04-0.496D-03 0.226D-03 0.418D-02
 Coeff-Com:  0.510D-02-0.880D-01 0.105D+00 0.974D+00
 Coeff:     -0.924D-05 0.614D-04-0.442D-04-0.496D-03 0.226D-03 0.418D-02
 Coeff:      0.510D-02-0.880D-01 0.105D+00 0.974D+00
 Gap=     0.615 Goal=   None    Shift=    0.000
 RMSDP=6.49D-09 MaxDP=7.61D-08 DE=-1.31D-12 OVMax= 1.84D-07

 SCF Done:  E(RHF) =  -154.090901303     A.U. after   10 cycles
            NFock= 10  Conv=0.65D-08     -V/T= 2.0015
 KE= 1.538548390377D+02 PE=-5.244592180670D+02 EE= 1.351700238578D+02
 Leave Link  502 at Thu Dec 16 11:32:17 2021, MaxMem=   536870912 cpu:               1.2 elap:               0.4
 (Enter /opt/gaussian/g16/sse4/g16/l801.exe)
 ExpMin= 1.22D-01 ExpMax= 1.17D+04 ExpMxC= 4.01D+02 IAcc=3 IRadAn=         5 AccDes= 0.00D+00
 HarFok:  IExCor=  205 AccDes= 0.00D+00 IRadAn=         5 IDoV=-2 UseB2=F ITyADJ=14
 ICtDFT= 12500011 ScaDFX=  1.000000  1.000000  1.000000  1.000000
 Largest valence mixing into a core orbital is  1.07D-04
 Largest core mixing into a valence orbital is  4.26D-05
 Range of M.O.s used for correlation:     4    72
 NBasis=    72 NAE=    13 NBE=    13 NFC=     3 NFV=     0
 NROrb=     69 NOA=    10 NOB=    10 NVA=    59 NVB=    59
 Leave Link  801 at Thu Dec 16 11:32:17 2021, MaxMem=   536870912 cpu:               0.5 elap:               0.1
 (Enter /opt/gaussian/g16/sse4/g16/l906.exe)
 Frozen-core derivative calculation, NFC=   3 NFV=   0.
 FulOut=F Deriv=T AODrv=T NAtomX=     9
   MMem=         609  MDisk=          10 MDiskD=          10
  W3Min=       70200 MinDsk=      171950 NBas6D=          75
 NBas2D=        2931    NTT=        2850    LW2=     2040000
    MDV=   536767800 MDiskM=       99031 NBas2p=        2930
 Fully direct method using O(ONN) memory.
 IMap=   1   2   3   4   5   6   7   8   9  10  11  12  13
 JobTyp=1 Pass  1:  I=   4 to  13 NPSUse=  4 ParTrn=T ParDer=T DoDerP=T.
 Spin components of T(2) and E(2):
     alpha-alpha T2 =       0.1748344625D-01 E2=     -0.5683225488D-01
     alpha-beta  T2 =       0.1120451017D+00 E2=     -0.3690845493D+00
     beta-beta   T2 =       0.1748344625D-01 E2=     -0.5683225488D-01
 The integrals were generated   1 times.
 ANorm=    0.1070986458D+01
 E2 =    -0.4827490590D+00 EUMP2 =    -0.15457365036251D+03
 Leave Link  906 at Thu Dec 16 11:32:18 2021, MaxMem=   536870912 cpu:               3.1 elap:               0.8
 (Enter /opt/gaussian/g16/sse4/g16/l1002.exe)
 Minotr:  Closed shell wavefunction.
          Computing MP2/KS-MP2 derivatives.
          Using Z-Vector for PSCF gradient.
          Skipping F1 and S1 gradient terms here.
          IDoAtm=111111111
          Frozen-core window.
          Direct CPHF calculation.
          Differentiating once with respect to electric field.
                with respect to dipole field.
          Differentiating once with respect to nuclear coordinates.
          Requested convergence is 1.0D-10 RMS, and 1.0D-09 maximum.
          NewPWx=F KeepS1=T KeepF1=T KeepIn=T MapXYZ=F SortEE=F KeepMc=T.
 Keep R1 ints in memory in canonical form, NReq=4338579.
 FoFCou: FMM=F IPFlag=           0 FMFlag=           0 FMFlg1=           0
         NFxFlg=           0 DoJE=F BraDBF=F KetDBF=F FulRan=T
         wScrn=  0.000000 ICntrl=       600 IOpCl=  0 I1Cent=           0 NGrid=           0
         NMat0=    1 NMatS0=   2628 NMatT0=    0 NMatD0=    1 NMtDS0=    0 NMtDT0=    0
 Symmetry not used in FoFCou.
 Two-electron integral symmetry not used.
          MDV=     536870912 using IRadAn=       5.
          Solving linear equations separately, MaxMat=       0.
          There are     1 degrees of freedom in the 1st order CPHF.  IDoFFX=0 NUNeed=     1.
 LinEq1:  Iter=  0 NonCon=     1 RMS=4.45D-03 Max=3.11D-02 NDo=     1
 AX will form     1 AO Fock derivatives at one time.
 LinEq1:  Iter=  1 NonCon=     1 RMS=1.04D-03 Max=6.47D-03 NDo=     1
 LinEq1:  Iter=  2 NonCon=     1 RMS=2.76D-04 Max=1.79D-03 NDo=     1
 LinEq1:  Iter=  3 NonCon=     1 RMS=8.04D-05 Max=4.74D-04 NDo=     1
 LinEq1:  Iter=  4 NonCon=     1 RMS=2.14D-05 Max=1.64D-04 NDo=     1
 LinEq1:  Iter=  5 NonCon=     1 RMS=3.59D-06 Max=2.17D-05 NDo=     1
 LinEq1:  Iter=  6 NonCon=     1 RMS=7.24D-07 Max=3.20D-06 NDo=     1
 LinEq1:  Iter=  7 NonCon=     1 RMS=1.82D-07 Max=1.05D-06 NDo=     1
 LinEq1:  Iter=  8 NonCon=     1 RMS=5.01D-08 Max=3.06D-07 NDo=     1
 LinEq1:  Iter=  9 NonCon=     1 RMS=9.37D-09 Max=5.94D-08 NDo=     1
 LinEq1:  Iter= 10 NonCon=     1 RMS=1.86D-09 Max=1.03D-08 NDo=     1
 LinEq1:  Iter= 11 NonCon=     1 RMS=2.56D-10 Max=2.54D-09 NDo=     1
 LinEq1:  Iter= 12 NonCon=     0 RMS=5.06D-11 Max=4.67D-10 NDo=     1
 Linear equations converged to 1.000D-10 1.000D-09 after    12 iterations.
 End of Minotr F.D. properties file   721 does not exist.
 End of Minotr F.D. properties file   722 does not exist.
 End of Minotr F.D. properties file   788 does not exist.
 Leave Link 1002 at Thu Dec 16 11:32:19 2021, MaxMem=   536870912 cpu:               2.4 elap:               0.7
 (Enter /opt/gaussian/g16/sse4/g16/l701.exe)
 ... and contract with generalized density number  2.
 Compute integral first derivatives.
 Leave Link  701 at Thu Dec 16 11:32:19 2021, MaxMem=   536870912 cpu:               0.5 elap:               0.1
 (Enter /opt/gaussian/g16/sse4/g16/l702.exe)
 L702 exits ... SP integral derivatives will be done elsewhere.
 Leave Link  702 at Thu Dec 16 11:32:19 2021, MaxMem=   536870912 cpu:               0.1 elap:               0.0
 (Enter /opt/gaussian/g16/sse4/g16/l703.exe)
 Integral derivatives from FoFJK, PRISM(SPDF).
 Compute integral first derivatives, UseDBF=F ICtDFT=           0.
 Calling FoFJK, ICntrl=  10002127 FMM=F ISym2X=0 I1Cent= 0 IOpClX= 0 NMat=1 NMatS=1 NMatT=0.
 FoFJK:  IHMeth= 1 ICntrl=10002127 DoSepK=F KAlg= 0 I1Cent=           0 FoldK=F
 IRaf=         0 NMat=       1 IRICut=       1 DoRegI=T DoRafI=F ISym2E= 0 IDoP0=0 IntGTp=1.
 FoFCou: FMM=F IPFlag=           0 FMFlag=      100000 FMFlg1=         800
         NFxFlg=           0 DoJE=F BraDBF=F KetDBF=F FulRan=T
         wScrn=  0.000000 ICntrl=  10002127 IOpCl=  0 I1Cent=           0 NGrid=           0
         NMat0=    1 NMatS0=      1 NMatT0=    0 NMatD0=    1 NMtDS0=    0 NMtDT0=    0
 Symmetry not used in FoFCou.
 Leave Link  703 at Thu Dec 16 11:32:19 2021, MaxMem=   536870912 cpu:               1.6 elap:               0.4
 (Enter /opt/gaussian/g16/sse4/g16/l716.exe)
 Dipole        =-4.27604574D-01-7.35907569D-02 4.50005774D-01
 ***** Axes restored to original set *****
 -------------------------------------------------------------------
 Center     Atomic                   Forces (Hartrees/Bohr)
 Number     Number              X              Y              Z
 -------------------------------------------------------------------
      1        6           0.000458164    0.001975794   -0.001284332
      2        6           0.000970287    0.001884105    0.003740446
      3        8          -0.002407768   -0.003520514   -0.000085777
      4        1           0.001326470    0.000311961   -0.000522717
      5        1          -0.000476179   -0.000470944    0.000041436
      6        1          -0.000059390   -0.000232080    0.000054528
      7        1           0.000306615    0.000509748   -0.000777319
      8        1          -0.000110448   -0.001807640    0.001051197
      9        1          -0.000007751    0.001349571   -0.002217461
 -------------------------------------------------------------------
 Cartesian Forces:  Max     0.003740446 RMS     0.001455083
 Leave Link  716 at Thu Dec 16 11:32:20 2021, MaxMem=   536870912 cpu:               0.1 elap:               0.0
 (Enter /opt/gaussian/g16/sse4/g16/l103.exe)

 GradGradGradGradGradGradGradGradGradGradGradGradGradGradGradGradGradGrad
 Berny optimization.
 Using GEDIIS/GDIIS optimizer.
 FormGI is forming the generalized inverse of G from B-inverse, IUseBI=4.
 Internal  Forces:  Max     0.002873424 RMS     0.001129385
 Search for a local minimum.
 Step number   2 out of a maximum of   43
 All quantities printed in internal units (Hartrees-Bohrs-Radians)
 RMS Force = .11294D-02 SwitMx=.10000D-02 MixMth= 1
 Mixed Optimization -- RFO/linear search
 Update second derivatives using D2CorX and points    1    2
 DE= -1.35D-03 DEPred=-1.85D-03 R= 7.30D-01
 TightC=F SS=  1.41D+00  RLast= 1.81D-01 DXNew= 5.0454D-01 5.4223D-01
 Trust test= 7.30D-01 RLast= 1.81D-01 DXMaxT set to 5.05D-01
 ITU=  1  0
 Use linear search instead of GDIIS.
     Eigenvalues ---    0.00573   0.01425   0.05541   0.05599   0.05814
     Eigenvalues ---    0.05913   0.11775   0.14027   0.15955   0.16000
     Eigenvalues ---    0.16000   0.17128   0.23501   0.31115   0.33007
     Eigenvalues ---    0.34249   0.34275   0.34364   0.34639   0.42772
     Eigenvalues ---    0.53440
 RFO step:  Lambda=-7.88433120D-05 EMin= 5.73102329D-03
 Quartic linear search produced a step of -0.18739.
 Iteration  1 RMS(Cart)=  0.00721507 RMS(Int)=  0.00010463
 Iteration  2 RMS(Cart)=  0.00004386 RMS(Int)=  0.00009846
 Iteration  3 RMS(Cart)=  0.00000000 RMS(Int)=  0.00009846
 ITry= 1 IFail=0 DXMaxC= 1.79D-02 DCOld= 1.00D+10 DXMaxT= 5.05D-01 DXLimC= 3.00D+00 Rises=F
 Variable       Old X    -DE/DX   Delta X   Delta X   Delta X     New X
                                 (Linear)    (Quad)   (Total)
    R1        2.88467  -0.00132  -0.00421   0.00131  -0.00290   2.88176
    R2        2.08635  -0.00097  -0.00371   0.00192  -0.00179   2.08456
    R3        2.08737   0.00015  -0.00341   0.00421   0.00080   2.08817
    R4        2.08278  -0.00015  -0.00255   0.00254  -0.00001   2.08277
    R5        2.69325  -0.00169  -0.00178  -0.00123  -0.00300   2.69024
    R6        2.09531   0.00002  -0.00516   0.00590   0.00074   2.09604
    R7        2.08063   0.00091  -0.00253   0.00501   0.00248   2.08311
    R8        1.82476   0.00206   0.00240   0.00044   0.00285   1.82761
    A1        1.95351  -0.00186  -0.00340  -0.00751  -0.01092   1.94258
    A2        1.92701   0.00095   0.00096   0.00432   0.00526   1.93227
    A3        1.91738   0.00046   0.00243   0.00089   0.00330   1.92068
    A4        1.88378   0.00012   0.00273  -0.00491  -0.00218   1.88159
    A5        1.89808   0.00054   0.00038   0.00110   0.00147   1.89955
    A6        1.88228  -0.00017  -0.00309   0.00652   0.00340   1.88567
    A7        1.97001  -0.00247  -0.00947   0.00143  -0.00793   1.96208
    A8        1.92172   0.00085   0.00300  -0.00533  -0.00201   1.91971
    A9        1.91806   0.00011   0.00193   0.00232   0.00419   1.92225
   A10        1.95398  -0.00025  -0.01057   0.00099  -0.00948   1.94451
   A11        1.82410   0.00233   0.01196   0.00639   0.01823   1.84233
   A12        1.87091  -0.00042   0.00389  -0.00551  -0.00163   1.86928
   A13        1.83618   0.00287   0.00765   0.00592   0.01357   1.84976
    D1       -3.06859  -0.00106  -0.01069  -0.00239  -0.01308  -3.08167
    D2        1.01699   0.00047   0.00743  -0.00059   0.00682   1.02381
    D3       -1.04003   0.00041  -0.00050   0.00796   0.00749  -1.03254
    D4        1.11566  -0.00062  -0.01252   0.00589  -0.00663   1.10903
    D5       -1.08194   0.00091   0.00560   0.00768   0.01327  -1.06867
    D6       -3.13896   0.00085  -0.00233   0.01623   0.01394  -3.12502
    D7       -0.95813  -0.00129  -0.01082  -0.00536  -0.01620  -0.97433
    D8        3.12745   0.00024   0.00730  -0.00357   0.00370   3.13115
    D9        1.07043   0.00018  -0.00063   0.00498   0.00438   1.07480
   D10       -1.07396   0.00046   0.00543   0.00529   0.01100  -1.06296
   D11        1.10619  -0.00055  -0.00491   0.00007  -0.00515   1.10104
   D12        3.12547   0.00017   0.00098  -0.00231  -0.00131   3.12417
         Item               Value     Threshold  Converged?
 Maximum Force            0.002873     0.000450     NO 
 RMS     Force            0.001129     0.000300     NO 
 Maximum Displacement     0.017923     0.001800     NO 
 RMS     Displacement     0.007224     0.001200     NO 
 Predicted change in Energy=-1.115028D-04
 Lowest energy point so far.  Saving SCF results.
 GradGradGradGradGradGradGradGradGradGradGradGradGradGradGradGradGradGrad

 Leave Link  103 at Thu Dec 16 11:32:20 2021, MaxMem=   536870912 cpu:               0.0 elap:               0.0
 (Enter /opt/gaussian/g16/sse4/g16/l202.exe)
                          Input orientation:                          
 ---------------------------------------------------------------------
 Center     Atomic      Atomic             Coordinates (Angstroms)
 Number     Number       Type             X           Y           Z
 ---------------------------------------------------------------------
      1          6           0        0.997497    0.072073   -0.059701
      2          6           0        2.522023    0.090323   -0.091327
      3          8           0        3.038199    1.263080   -0.711716
      4          1           0        0.618400   -0.813364    0.477992
      5          1           0        0.585633    0.046924   -1.084783
      6          1           0        0.619043    0.979688    0.438042
      7          1           0        2.902141   -0.828510   -0.582785
      8          1           0        2.922834    0.098218    0.935528
      9          1           0        2.703011    1.253998   -1.618860
 ---------------------------------------------------------------------
                    Distance matrix (angstroms):
                    1          2          3          4          5
     1  C    0.000000
     2  C    1.524964   0.000000
     3  O    2.451140   1.423615   0.000000
     4  H    1.103099   2.182787   3.403300   0.000000
     5  H    1.105014   2.176797   2.762841   1.784218   0.000000
     6  H    1.102152   2.166226   2.693431   1.793497   1.786102
     7  H    2.170792   1.109178   2.099973   2.518124   2.526775
     8  H    2.167508   1.102335   2.020799   2.520067   3.089789
     9  H    2.595516   1.928796   0.967131   3.607822   2.495107
                    6          7          8          9
     6  H    0.000000
     7  H    3.086131   0.000000
     8  H    2.516334   1.778912   0.000000
     9  H    2.940921   2.334512   2.812303   0.000000
 Stoichiometry    C2H6O
 Framework group  C1[X(C2H6O)]
 Deg. of freedom    21
 Full point group                 C1      NOp   1
 RotChk:  IX=0 Diff= 1.59D-02
 Largest Abelian subgroup         C1      NOp   1
 Largest concise Abelian subgroup C1      NOp   1
                         Standard orientation:                         
 ---------------------------------------------------------------------
 Center     Atomic      Atomic             Coordinates (Angstroms)
 Number     Number       Type             X           Y           Z
 ---------------------------------------------------------------------
      1          6           0       -1.211456   -0.239464   -0.022624
      2          6           0        0.085921    0.558966    0.046932
      3          8           0        1.238075   -0.262690   -0.108311
      4          1           0       -2.092515    0.421464    0.038518
      5          1           0       -1.271588   -0.960873    0.812247
      6          1           0       -1.256343   -0.805844   -0.967049
      7          1           0        0.125226    1.136961    0.992792
      8          1           0        0.128329    1.286894   -0.779788
      9          1           0        1.215505   -0.894090    0.623923
 ---------------------------------------------------------------------
 Rotational constants (GHZ):          33.9724665           9.1948883           8.1147228
 Leave Link  202 at Thu Dec 16 11:32:20 2021, MaxMem=   536870912 cpu:               0.0 elap:               0.0
 (Enter /opt/gaussian/g16/sse4/g16/l301.exe)
 Standard basis: CC-pVDZ (5D, 7F)
 Ernie: Thresh=  0.10000D-02 Tol=  0.10000D-05 Strict=F.
 Ernie:  6 primitive shells out of 96 were deleted.
 There are    75 symmetry adapted cartesian basis functions of A   symmetry.
 There are    72 symmetry adapted basis functions of A   symmetry.
    72 basis functions,   141 primitive gaussians,    75 cartesian basis functions
    13 alpha electrons       13 beta electrons
       nuclear repulsion energy        81.4060242895 Hartrees.
 IExCor=    0 DFT=F Ex=HF Corr=None ExCW=0 ScaHFX=  1.000000
 ScaDFX=  1.000000  1.000000  1.000000  1.000000 ScalE2=  1.000000  1.000000
 IRadAn=      5 IRanWt=     -1 IRanGd=            0 ICorTp=0 IEmpDi=  4
 NAtoms=    9 NActive=    9 NUniq=    9 SFac= 1.00D+00 NAtFMM=   60 NAOKFM=F Big=F
 Integral buffers will be    131072 words long.
 Raffenetti 1 integral format.
 Two-electron integral symmetry is turned on.
 Leave Link  301 at Thu Dec 16 11:32:20 2021, MaxMem=   536870912 cpu:               0.2 elap:               0.0
 (Enter /opt/gaussian/g16/sse4/g16/l302.exe)
 NPDir=0 NMtPBC=     1 NCelOv=     1 NCel=       1 NClECP=     1 NCelD=      1
         NCelK=      1 NCelE2=     1 NClLst=     1 CellRange=     0.0.
 One-electron integrals computed using PRISM.
 One-electron integral symmetry used in STVInt
 NBasis=    72 RedAO= T EigKep=  6.57D-03  NBF=    72
 NBsUse=    72 1.00D-06 EigRej= -1.00D+00 NBFU=    72
 Leave Link  302 at Thu Dec 16 11:32:20 2021, MaxMem=   536870912 cpu:               0.5 elap:               0.1
 (Enter /opt/gaussian/g16/sse4/g16/l303.exe)
 DipDrv:  MaxL=1.
 Leave Link  303 at Thu Dec 16 11:32:20 2021, MaxMem=   536870912 cpu:               0.1 elap:               0.0
 (Enter /opt/gaussian/g16/sse4/g16/l401.exe)
 Initial guess from the checkpoint file:  "MP2_Ethanol_gaus.chk"
 B after Tr=     0.000000    0.000000    0.000000
         Rot=    0.999991   -0.004228   -0.000633   -0.000127 Ang=  -0.49 deg.
 Guess basis will be translated and rotated to current coordinates.
 JPrj=2 DoOrth=T DoCkMO=T.
 Leave Link  401 at Thu Dec 16 11:32:20 2021, MaxMem=   536870912 cpu:               0.3 elap:               0.1
 (Enter /opt/gaussian/g16/sse4/g16/l502.exe)
 Keep R1 ints in memory in canonical form, NReq=4336485.
 FoFCou: FMM=F IPFlag=           0 FMFlag=           0 FMFlg1=           0
         NFxFlg=           0 DoJE=F BraDBF=F KetDBF=F FulRan=T
         wScrn=  0.000000 ICntrl=       600 IOpCl=  0 I1Cent=           0 NGrid=           0
         NMat0=    1 NMatS0=   2628 NMatT0=    0 NMatD0=    1 NMtDS0=    0 NMtDT0=    0
 Symmetry not used in FoFCou.
 Two-electron integral symmetry not used.
 Closed shell SCF:
 Using DIIS extrapolation, IDIIS=  1040.
 NGot=   536870912 LenX=   533403697 LenY=   533397631
 Requested convergence on RMS density matrix=1.00D-08 within 128 cycles.
 Requested convergence on MAX density matrix=1.00D-06.
 Requested convergence on             energy=1.00D-06.
 No special actions if energy rises.

 Cycle   1  Pass 1  IDiag  1:
 E= -154.091172930686    
 DIIS: error= 4.74D-04 at cycle   1 NSaved=   1.
 NSaved= 1 IEnMin= 1 EnMin= -154.091172930686     IErMin= 1 ErrMin= 4.74D-04
 ErrMax= 4.74D-04  0.00D+00 EMaxC= 1.00D-01 BMatC= 3.37D-05 BMatP= 3.37D-05
 IDIUse=3 WtCom= 9.95D-01 WtEn= 4.74D-03
 Coeff-Com:  0.100D+01
 Coeff-En:   0.100D+01
 Coeff:      0.100D+01
 Gap=     0.973 Goal=   None    Shift=    0.000
 RMSDP=9.69D-05 MaxDP=1.00D-03              OVMax= 1.38D-03

 Cycle   2  Pass 1  IDiag  1:
 E= -154.091214550693     Delta-E=       -0.000041620008 Rises=F Damp=F
 DIIS: error= 8.75D-05 at cycle   2 NSaved=   2.
 NSaved= 2 IEnMin= 2 EnMin= -154.091214550693     IErMin= 2 ErrMin= 8.75D-05
 ErrMax= 8.75D-05  0.00D+00 EMaxC= 1.00D-01 BMatC= 1.65D-06 BMatP= 3.37D-05
 IDIUse=1 WtCom= 1.00D+00 WtEn= 0.00D+00
 Coeff-Com: -0.203D+00 0.120D+01
 Coeff:     -0.203D+00 0.120D+01
 Gap=     0.614 Goal=   None    Shift=    0.000
 RMSDP=2.99D-05 MaxDP=2.37D-04 DE=-4.16D-05 OVMax= 5.44D-04

 Cycle   3  Pass 1  IDiag  1:
 E= -154.091217658390     Delta-E=       -0.000003107697 Rises=F Damp=F
 DIIS: error= 2.64D-05 at cycle   3 NSaved=   3.
 NSaved= 3 IEnMin= 3 EnMin= -154.091217658390     IErMin= 3 ErrMin= 2.64D-05
 ErrMax= 2.64D-05  0.00D+00 EMaxC= 1.00D-01 BMatC= 9.83D-08 BMatP= 1.65D-06
 IDIUse=1 WtCom= 1.00D+00 WtEn= 0.00D+00
 Coeff-Com: -0.237D-01 0.203D-01 0.100D+01
 Coeff:     -0.237D-01 0.203D-01 0.100D+01
 Gap=     0.615 Goal=   None    Shift=    0.000
 RMSDP=6.26D-06 MaxDP=1.13D-04 DE=-3.11D-06 OVMax= 1.31D-04

 Cycle   4  Pass 1  IDiag  1:
 E= -154.091217825901     Delta-E=       -0.000000167511 Rises=F Damp=F
 DIIS: error= 1.26D-05 at cycle   4 NSaved=   4.
 NSaved= 4 IEnMin= 4 EnMin= -154.091217825901     IErMin= 4 ErrMin= 1.26D-05
 ErrMax= 1.26D-05  0.00D+00 EMaxC= 1.00D-01 BMatC= 2.00D-08 BMatP= 9.83D-08
 IDIUse=1 WtCom= 1.00D+00 WtEn= 0.00D+00
 Coeff-Com:  0.199D-01-0.147D+00 0.207D+00 0.920D+00
 Coeff:      0.199D-01-0.147D+00 0.207D+00 0.920D+00
 Gap=     0.615 Goal=   None    Shift=    0.000
 RMSDP=2.76D-06 MaxDP=5.05D-05 DE=-1.68D-07 OVMax= 5.53D-05

 Cycle   5  Pass 1  IDiag  1:
 E= -154.091217855369     Delta-E=       -0.000000029468 Rises=F Damp=F
 DIIS: error= 3.70D-06 at cycle   5 NSaved=   5.
 NSaved= 5 IEnMin= 5 EnMin= -154.091217855369     IErMin= 5 ErrMin= 3.70D-06
 ErrMax= 3.70D-06  0.00D+00 EMaxC= 1.00D-01 BMatC= 1.05D-09 BMatP= 2.00D-08
 IDIUse=1 WtCom= 1.00D+00 WtEn= 0.00D+00
 Coeff-Com:  0.107D-02 0.484D-02-0.888D-01-0.204D-01 0.110D+01
 Coeff:      0.107D-02 0.484D-02-0.888D-01-0.204D-01 0.110D+01
 Gap=     0.615 Goal=   None    Shift=    0.000
 RMSDP=9.57D-07 MaxDP=1.46D-05 DE=-2.95D-08 OVMax= 2.10D-05

 Cycle   6  Pass 1  IDiag  1:
 E= -154.091217857816     Delta-E=       -0.000000002447 Rises=F Damp=F
 DIIS: error= 8.17D-07 at cycle   6 NSaved=   6.
 NSaved= 6 IEnMin= 6 EnMin= -154.091217857816     IErMin= 6 ErrMin= 8.17D-07
 ErrMax= 8.17D-07  0.00D+00 EMaxC= 1.00D-01 BMatC= 1.03D-10 BMatP= 1.05D-09
 IDIUse=1 WtCom= 1.00D+00 WtEn= 0.00D+00
 Coeff-Com: -0.133D-02 0.107D-01-0.213D-01-0.739D-01 0.657D-01 0.102D+01
 Coeff:     -0.133D-02 0.107D-01-0.213D-01-0.739D-01 0.657D-01 0.102D+01
 Gap=     0.615 Goal=   None    Shift=    0.000
 RMSDP=2.96D-07 MaxDP=4.83D-06 DE=-2.45D-09 OVMax= 6.33D-06

 Cycle   7  Pass 1  IDiag  1:
 E= -154.091217858043     Delta-E=       -0.000000000227 Rises=F Damp=F
 DIIS: error= 2.58D-07 at cycle   7 NSaved=   7.
 NSaved= 7 IEnMin= 7 EnMin= -154.091217858043     IErMin= 7 ErrMin= 2.58D-07
 ErrMax= 2.58D-07  0.00D+00 EMaxC= 1.00D-01 BMatC= 9.97D-12 BMatP= 1.03D-10
 IDIUse=1 WtCom= 1.00D+00 WtEn= 0.00D+00
 Coeff-Com: -0.106D-03-0.471D-03 0.940D-02 0.299D-03-0.122D+00 0.561D-01
 Coeff-Com:  0.106D+01
 Coeff:     -0.106D-03-0.471D-03 0.940D-02 0.299D-03-0.122D+00 0.561D-01
 Coeff:      0.106D+01
 Gap=     0.615 Goal=   None    Shift=    0.000
 RMSDP=9.79D-08 MaxDP=1.48D-06 DE=-2.27D-10 OVMax= 2.48D-06

 Cycle   8  Pass 1  IDiag  1:
 E= -154.091217858064     Delta-E=       -0.000000000022 Rises=F Damp=F
 DIIS: error= 7.10D-08 at cycle   8 NSaved=   8.
 NSaved= 8 IEnMin= 8 EnMin= -154.091217858064     IErMin= 8 ErrMin= 7.10D-08
 ErrMax= 7.10D-08  0.00D+00 EMaxC= 1.00D-01 BMatC= 5.59D-13 BMatP= 9.97D-12
 IDIUse=1 WtCom= 1.00D+00 WtEn= 0.00D+00
 Coeff-Com:  0.109D-03-0.687D-03 0.142D-03 0.518D-02 0.139D-01-0.749D-01
 Coeff-Com: -0.172D+00 0.123D+01
 Coeff:      0.109D-03-0.687D-03 0.142D-03 0.518D-02 0.139D-01-0.749D-01
 Coeff:     -0.172D+00 0.123D+01
 Gap=     0.615 Goal=   None    Shift=    0.000
 RMSDP=2.73D-08 MaxDP=3.85D-07 DE=-2.19D-11 OVMax= 8.28D-07

 Cycle   9  Pass 1  IDiag  1:
 E= -154.091217858069     Delta-E=       -0.000000000004 Rises=F Damp=F
 DIIS: error= 2.27D-08 at cycle   9 NSaved=   9.
 NSaved= 9 IEnMin= 9 EnMin= -154.091217858069     IErMin= 9 ErrMin= 2.27D-08
 ErrMax= 2.27D-08  0.00D+00 EMaxC= 1.00D-01 BMatC= 3.55D-14 BMatP= 5.59D-13
 IDIUse=1 WtCom= 1.00D+00 WtEn= 0.00D+00
 Coeff-Com: -0.108D-04 0.132D-03-0.551D-03-0.896D-03 0.511D-02 0.850D-02
 Coeff-Com: -0.367D-01-0.217D+00 0.124D+01
 Coeff:     -0.108D-04 0.132D-03-0.551D-03-0.896D-03 0.511D-02 0.850D-02
 Coeff:     -0.367D-01-0.217D+00 0.124D+01
 Gap=     0.615 Goal=   None    Shift=    0.000
 RMSDP=7.63D-09 MaxDP=9.68D-08 DE=-4.26D-12 OVMax= 2.37D-07

 SCF Done:  E(RHF) =  -154.091217858     A.U. after    9 cycles
            NFock=  9  Conv=0.76D-08     -V/T= 2.0015
 KE= 1.538549523069D+02 PE=-5.245910837447D+02 EE= 1.352388892903D+02
 Leave Link  502 at Thu Dec 16 11:32:21 2021, MaxMem=   536870912 cpu:               1.2 elap:               0.3
 (Enter /opt/gaussian/g16/sse4/g16/l801.exe)
 ExpMin= 1.22D-01 ExpMax= 1.17D+04 ExpMxC= 4.01D+02 IAcc=3 IRadAn=         5 AccDes= 0.00D+00
 HarFok:  IExCor=  205 AccDes= 0.00D+00 IRadAn=         5 IDoV=-2 UseB2=F ITyADJ=14
 ICtDFT= 12500011 ScaDFX=  1.000000  1.000000  1.000000  1.000000
 Largest valence mixing into a core orbital is  1.07D-04
 Largest core mixing into a valence orbital is  4.26D-05
 Range of M.O.s used for correlation:     4    72
 NBasis=    72 NAE=    13 NBE=    13 NFC=     3 NFV=     0
 NROrb=     69 NOA=    10 NOB=    10 NVA=    59 NVB=    59
 Leave Link  801 at Thu Dec 16 11:32:21 2021, MaxMem=   536870912 cpu:               0.4 elap:               0.1
 (Enter /opt/gaussian/g16/sse4/g16/l906.exe)
 Frozen-core derivative calculation, NFC=   3 NFV=   0.
 FulOut=F Deriv=T AODrv=T NAtomX=     9
   MMem=         609  MDisk=          10 MDiskD=          10
  W3Min=       70200 MinDsk=      171950 NBas6D=          75
[...]
     23  0.590636D-02  0.695648D-02 -0.975316D-02  0.474962D-03  0.426685D-02
     24 -0.703417D-02 -0.545682D-02 -0.138112D-03  0.106842D-01 -0.447685D-02
     25 -0.324427D-04  0.231301D-02  0.125459D-01 -0.116450D-01 -0.442407D-03
     26  0.990224D-02  0.519650D-02 -0.104703D-01  0.226387D-02  0.367109D-02
     27 -0.303829D-02 -0.721680D-02 -0.855263D-03  0.124731D-01 -0.507261D-02
     28 -0.269865D-02  0.134760D-03  0.110660D-01 -0.132395D-01  0.797594D-03
     29  0.723603D-02  0.301825D-02 -0.119502D-01  0.669411D-03  0.491109D-02
     30 -0.570450D-02 -0.939505D-02 -0.233514D-02  0.108787D-01 -0.383261D-02
     31 -0.216652D-01  0.242187D-01  0.991547D-02 -0.645897D-02 -0.815971D-03
     32  0.249907D-01  0.435485D-02 -0.214666D-01 -0.139516D-01 -0.145624D-01
     33 -0.310673D-02 -0.275206D-01  0.125958D-01  0.208856D-01  0.147334D-01
               21            22            23            24            25 
     21  0.190919D+00
     22 -0.456777D-02  0.163228D-01
     23  0.224442D-03  0.223712D-02  0.158093D-01
     24  0.331095D-02  0.202995D-02  0.284642D-02  0.158446D-01
     25 -0.412104D-02  0.652594D-02 -0.760898D-02 -0.843925D-02  0.171991D-01
     26  0.671170D-03 -0.755974D-02  0.596323D-02 -0.762278D-02  0.306415D-02
     27  0.375768D-02 -0.776691D-02 -0.699967D-02  0.537535D-02  0.223388D-02
     28 -0.432094D-02  0.657457D-02 -0.833196D-02 -0.776076D-02  0.713449D-02
     29  0.471272D-03 -0.751112D-02  0.524025D-02 -0.694429D-02 -0.700043D-02
     30  0.355778D-02 -0.771828D-02 -0.772265D-02  0.605384D-02 -0.783070D-02
     31  0.272431D-03 -0.269699D-02  0.339240D-02  0.289362D-02 -0.462175D-02
     32 -0.178501D-02  0.195380D-02 -0.176356D-02 -0.164646D-02  0.264351D-02
     33  0.296088D-02  0.108523D-02 -0.131414D-02 -0.908886D-03  0.173349D-02
               26            27            28            29            30 
     26  0.165871D-01
     27  0.300112D-02  0.153761D-01
     28 -0.777203D-02 -0.720084D-02  0.173516D-01
     29  0.575095D-02 -0.643360D-02  0.244503D-02  0.151964D-01
     30 -0.783507D-02  0.594142D-02  0.301623D-02  0.301186D-02  0.167883D-01
     31  0.146764D-02  0.968862D-03 -0.460386D-02  0.148554D-02  0.986755D-03
     32 -0.107385D-02 -0.956746D-03  0.288749D-02 -0.829870D-03 -0.712771D-03
     33 -0.665879D-03 -0.260622D-03  0.179451D-02 -0.604856D-03 -0.199600D-03
               31            32            33 
     31  0.171107D-01
     32 -0.658320D-02  0.231746D-01
     33 -0.628482D-02 -0.128113D-01  0.229063D-01
 Leave Link  716 at Thu Dec 16 11:32:55 2021, MaxMem=   536870912 cpu:               0.1 elap:               0.0
 (Enter /opt/gaussian/g16/sse4/g16/l103.exe)

 GradGradGradGradGradGradGradGradGradGradGradGradGradGradGradGradGradGrad
 Berny optimization.
 Red2BG is reusing G-inverse.
 Internal  Forces:  Max     0.000045434 RMS     0.000014935
 Search for a local minimum.
 Step number   1 out of a maximum of    2
 All quantities printed in internal units (Hartrees-Bohrs-Radians)
 Second derivative matrix not updated -- analytic derivatives used.
 ITU=  0
     Eigenvalues ---    0.00333   0.00393   0.04414   0.04437   0.05062
     Eigenvalues ---    0.06112   0.10321   0.12190   0.12410   0.13083
     Eigenvalues ---    0.16523   0.17881   0.24596   0.31456   0.32907
     Eigenvalues ---    0.34770   0.34938   0.35297   0.35609   0.39725
     Eigenvalues ---    0.53241
 Angle between quadratic step and forces=  75.11 degrees.
 Linear search not attempted -- first point.
 Iteration  1 RMS(Cart)=  0.00040743 RMS(Int)=  0.00000035
 Iteration  2 RMS(Cart)=  0.00000030 RMS(Int)=  0.00000000
 ITry= 1 IFail=0 DXMaxC= 1.47D-03 DCOld= 1.00D+10 DXMaxT= 3.00D-01 DXLimC= 3.00D+00 Rises=F
 Variable       Old X    -DE/DX   Delta X   Delta X   Delta X     New X
                                 (Linear)    (Quad)   (Total)
    R1        2.88113   0.00005   0.00000   0.00015   0.00015   2.88128
    R2        2.08451  -0.00000   0.00000  -0.00002  -0.00002   2.08450
    R3        2.08719   0.00003   0.00000   0.00008   0.00008   2.08728
    R4        2.08189   0.00003   0.00000   0.00011   0.00011   2.08200
    R5        2.68665  -0.00004   0.00000  -0.00013  -0.00013   2.68652
    R6        2.09613   0.00002   0.00000   0.00006   0.00006   2.09619
    R7        2.08253   0.00002   0.00000   0.00006   0.00006   2.08259
    R8        1.82759  -0.00001   0.00000  -0.00002  -0.00002   1.82756
    A1        1.94031  -0.00001   0.00000  -0.00001  -0.00001   1.94030
    A2        1.93231   0.00001   0.00000   0.00012   0.00012   1.93243
    A3        1.92250   0.00000   0.00000  -0.00002  -0.00002   1.92248
    A4        1.88040   0.00000   0.00000   0.00013   0.00013   1.88053
    A5        1.89973  -0.00000   0.00000  -0.00008  -0.00008   1.89965
    A6        1.88714  -0.00001   0.00000  -0.00013  -0.00013   1.88701
    A7        1.96373   0.00001   0.00000   0.00006   0.00006   1.96379
    A8        1.91885  -0.00001   0.00000  -0.00005  -0.00005   1.91880
    A9        1.92147  -0.00000   0.00000  -0.00010  -0.00010   1.92137
   A10        1.94557   0.00000   0.00000   0.00008   0.00008   1.94565
   A11        1.84265  -0.00001   0.00000  -0.00005  -0.00005   1.84260
   A12        1.86774   0.00001   0.00000   0.00007   0.00007   1.86781
   A13        1.84955  -0.00000   0.00000   0.00003   0.00003   1.84958
    D1       -3.07812   0.00001   0.00000   0.00024   0.00024  -3.07788
    D2        1.02541   0.00000   0.00000   0.00014   0.00014   1.02556
    D3       -1.02806   0.00000   0.00000   0.00015   0.00015  -1.02791
    D4        1.11555  -0.00000   0.00000   0.00002   0.00002   1.11557
    D5       -1.06410  -0.00001   0.00000  -0.00009  -0.00009  -1.06418
    D6       -3.11757  -0.00001   0.00000  -0.00008  -0.00008  -3.11765
    D7       -0.97082   0.00000   0.00000   0.00012   0.00012  -0.97070
    D8        3.13271  -0.00000   0.00000   0.00002   0.00002   3.13273
    D9        1.07924  -0.00000   0.00000   0.00002   0.00002   1.07926
   D10       -1.06165   0.00001   0.00000   0.00161   0.00161  -1.06004
   D11        1.10329   0.00001   0.00000   0.00164   0.00164   1.10493
   D12        3.12530   0.00001   0.00000   0.00173   0.00173   3.12703
         Item               Value     Threshold  Converged?
 Maximum Force            0.000045     0.000450     YES
 RMS     Force            0.000015     0.000300     YES
 Maximum Displacement     0.001469     0.001800     YES
 RMS     Displacement     0.000407     0.001200     YES
 Predicted change in Energy=-3.218949D-08
 Optimization completed.
    -- Stationary point found.
                           ----------------------------
                           !   Optimized Parameters   !
                           ! (Angstroms and Degrees)  !
 --------------------------                            --------------------------
 ! Name  Definition              Value          Derivative Info.                !
 --------------------------------------------------------------------------------
 ! R1    R(1,2)                  1.5246         -DE/DX =    0.0                 !
 ! R2    R(1,4)                  1.1031         -DE/DX =    0.0                 !
 ! R3    R(1,5)                  1.1045         -DE/DX =    0.0                 !
 ! R4    R(1,6)                  1.1017         -DE/DX =    0.0                 !
 ! R5    R(2,3)                  1.4217         -DE/DX =    0.0                 !
 ! R6    R(2,7)                  1.1092         -DE/DX =    0.0                 !
 ! R7    R(2,8)                  1.102          -DE/DX =    0.0                 !
 ! R8    R(3,9)                  0.9671         -DE/DX =    0.0                 !
 ! A1    A(2,1,4)              111.1717         -DE/DX =    0.0                 !
 ! A2    A(2,1,5)              110.7133         -DE/DX =    0.0                 !
 ! A3    A(2,1,6)              110.1511         -DE/DX =    0.0                 !
 ! A4    A(4,1,5)              107.7389         -DE/DX =    0.0                 !
 ! A5    A(4,1,6)              108.8466         -DE/DX =    0.0                 !
 ! A6    A(5,1,6)              108.1252         -DE/DX =    0.0                 !
 ! A7    A(1,2,3)              112.5135         -DE/DX =    0.0                 !
 ! A8    A(1,2,7)              109.9423         -DE/DX =    0.0                 !
 ! A9    A(1,2,8)              110.0922         -DE/DX =    0.0                 !
 ! A10   A(3,2,7)              111.4731         -DE/DX =    0.0                 !
 ! A11   A(3,2,8)              105.5761         -DE/DX =    0.0                 !
 ! A12   A(7,2,8)              107.0135         -DE/DX =    0.0                 !
 ! A13   A(2,3,9)              105.9714         -DE/DX =    0.0                 !
 ! D1    D(4,1,2,3)           -176.3632         -DE/DX =    0.0                 !
 ! D2    D(4,1,2,7)             58.7519         -DE/DX =    0.0                 !
 ! D3    D(4,1,2,8)            -58.9035         -DE/DX =    0.0                 !
 ! D4    D(5,1,2,3)             63.9165         -DE/DX =    0.0                 !
 ! D5    D(5,1,2,7)            -60.9684         -DE/DX =    0.0                 !
 ! D6    D(5,1,2,8)           -178.6238         -DE/DX =    0.0                 !
 ! D7    D(6,1,2,3)            -55.624          -DE/DX =    0.0                 !
 ! D8    D(6,1,2,7)            179.4911         -DE/DX =    0.0                 !
 ! D9    D(6,1,2,8)             61.8357         -DE/DX =    0.0                 !
 ! D10   D(1,2,3,9)            -60.8279         -DE/DX =    0.0                 !
 ! D11   D(7,2,3,9)             63.2139         -DE/DX =    0.0                 !
 ! D12   D(8,2,3,9)            179.0668         -DE/DX =    0.0                 !
 --------------------------------------------------------------------------------
 GradGradGradGradGradGradGradGradGradGradGradGradGradGradGradGradGradGrad

 Leave Link  103 at Thu Dec 16 11:32:55 2021, MaxMem=   536870912 cpu:               0.0 elap:               0.0
 (Enter /opt/gaussian/g16/sse4/g16/l9999.exe)

 ----------------------------------------------------------------------

 Electric dipole moment (input orientation):
 (Debye = 10**-18 statcoulomb cm , SI units = C m)
                  (au)            (Debye)         (10**-30 SI)
   Tot        0.620676D+00      0.157760D+01      0.526231D+01
   x         -0.383475D+00     -0.974697D+00     -0.325124D+01
   y         -0.398594D+00     -0.101313D+01     -0.337942D+01
   z         -0.281617D+00     -0.715798D+00     -0.238765D+01

 Dipole polarizability, Alpha (input orientation).
 (esu units = cm**3 , SI units = C**2 m**2 J**-1)
 Alpha(0;0):
               (au)            (10**-24 esu)      (10**-40 SI)
   iso        0.272005D+02      0.403069D+01      0.448475D+01
   aniso      0.288264D+01      0.427163D+00      0.475283D+00
   xx         0.273907D+02      0.405889D+01      0.451612D+01
   yx         0.737309D+00      0.109258D+00      0.121566D+00
   yy         0.266863D+02      0.395450D+01      0.439997D+01
   zx        -0.144173D-01     -0.213642D-02     -0.237709D-02
   zy        -0.142242D+01     -0.210781D+00     -0.234525D+00
   zz         0.275244D+02      0.407869D+01      0.453816D+01

 ----------------------------------------------------------------------

 Dipole orientation:
     6          1.42240530          0.34260323         -1.20210159
     6          3.57503928          1.06512758         -2.97551873
     8          4.41342122         -1.00288510         -4.47169057
     1          0.72349707          2.00174343         -0.15139528
     1          2.05936897         -1.07216764          0.19399283
     1         -0.15363135         -0.48031229         -2.28523650
     1          5.15087791          1.90863940         -1.88054223
     1          2.93177151          2.51056328         -4.32971821
     1          5.00722394         -2.26771883         -3.29369740

 Electric dipole moment (dipole orientation):
 (Debye = 10**-18 statcoulomb cm , SI units = C m)
                  (au)            (Debye)         (10**-30 SI)
   Tot        0.620676D+00      0.157760D+01      0.526231D+01
   x          0.000000D+00      0.000000D+00      0.000000D+00
   y          0.000000D+00      0.000000D+00      0.000000D+00
   z          0.620676D+00      0.157760D+01      0.526231D+01

 Dipole polarizability, Alpha (dipole orientation).
 (esu units = cm**3 , SI units = C**2 m**2 J**-1)
 Alpha(0;0):
               (au)            (10**-24 esu)      (10**-40 SI)
   iso        0.272005D+02      0.403069D+01      0.448475D+01
   aniso      0.288264D+01      0.427163D+00      0.475283D+00
   xx         0.266259D+02      0.394555D+01      0.439002D+01
   yx        -0.101973D+01     -0.151108D+00     -0.168131D+00
   yy         0.280997D+02      0.416395D+01      0.463301D+01
   zx        -0.105203D+01     -0.155895D+00     -0.173457D+00
   zy        -0.340947D-01     -0.505231D-02     -0.562145D-02
   zz         0.268758D+02      0.398258D+01      0.443122D+01

 ----------------------------------------------------------------------
 1\1\GINC-NODE702\Freq\RMP2-FC\CC-pVDZ\C2H6O1\THEOB\16-Dec-2021\0\\#P G
 eom=AllCheck Guess=TCheck SCRF=Check GenChk RMP2(FC)/CC-pVDZ Freq\\Eth
 anol.xyz\\0,1\C,0.9975612373,0.073212705,-0.0599925815\C,2.5217366788,
 0.0911009325,-0.0924453043\O,3.0393765095,1.2623503596,-0.7100982093\H
 ,0.6209365584,-0.8118120972,0.4800681794\H,0.5853405626,0.0430483696,-
 1.0842359977\H,0.6178224108,0.9808545572,0.43569064\H,2.9005014201,-0.
 8283435909,-0.5839076417\H,2.922228952,0.0963148351,0.9342211306\H,2.7
 032756705,1.2557039291,-1.6169102156\\Version=ES64L-G16RevA.03\State=1
 -A\HF=-154.091283\MP2=-154.5737679\RMSD=4.353e-10\RMSF=2.130e-05\ZeroP
 oint=0.0811476\Thermal=0.0853367\Dipole=-0.3834753,-0.3985943,-0.28161
 67\DipoleDeriv=-0.1128095,-0.035139,0.0445284,0.0116488,0.0476632,0.01
 70119,0.0232964,-0.0002189,0.0818354,0.5415462,0.137435,-0.1297635,0.1
 095665,0.668498,-0.1389705,-0.1334073,-0.1719926,0.4133792,-0.6104999,
 -0.1025367,0.191138,-0.1288057,-0.7245313,0.1940402,0.2251936,0.234615
 7,-0.4179859,0.0026467,-0.038131,0.0272736,-0.0697942,-0.067328,0.0827
 415,0.043591,0.0805379,0.0169394,-0.0101842,-0.0024894,-0.0287819,0.00
 90318,0.0587134,0.0023111,-0.0849103,0.0003019,-0.1383981,0.0005325,0.
 0266985,0.0139357,0.0774173,-0.059436,-0.0726394,0.0217899,-0.0625244,
 0.02704,-0.0657749,0.0505085,0.0571224,0.0631827,-0.1987909,-0.0370881
 ,0.0615967,-0.0869152,-0.0324833,-0.0305103,-0.0102521,-0.0626203,-0.0
 24678,0.0210469,-0.0019682,-0.069207,0.0274351,-0.1292625,0.2850536,-0
 .0260939,-0.1128325,-0.0475692,0.2541648,-0.0454385,-0.087943,-0.02123
 95,0.1789357\Polar=27.390716,0.7373092,26.6862749,-0.0144173,-1.422418
 8,27.5243932\PG=C01 [X(C2H6O1)]\NImag=0\\0.50118150,-0.00146819,0.6034
 2417,0.00012309,-0.00050073,0.58829284,-0.22423985,0.01711365,-0.00791
 116,0.51237795,0.00846705,-0.07926947,-0.00383719,-0.03331157,0.546422
 44,-0.00132351,-0.00225082,-0.08443550,0.03952002,0.03703732,0.6353907
 0,-0.01525052,-0.04172692,0.02252661,-0.09131305,-0.04718132,0.0020807
 4,0.17523109,-0.00883279,-0.01177151,0.01073337,-0.06479036,-0.1948225
 2,0.03879679,0.10995195,0.27768299,0.00418377,0.01002101,-0.00236953,0
 .03009490,0.07847285,-0.12412678,0.13627724,-0.09200214,0.58540521,-0.
 07888455,-0.07353530,0.04577716,-0.00252210,-0.02770891,0.01686850,-0.
 00970540,-0.00270745,0.00190360,0.08304095,-0.07509449,-0.22776518,0.1
 1071273,0.00318411,-0.00057276,-0.00120931,-0.00116818,0.00165499,0.00
 057892,0.08257706,0.24269459,0.04665274,0.11094736,-0.11396476,-0.0017
 6146,-0.00053994,-0.00184595,0.00043273,-0.00017192,0.00152336,-0.0502
 2230,-0.12076956,0.11911787,-0.08179602,-0.00306545,-0.09142610,-0.013
 26536,-0.00054195,-0.03555098,0.00355096,0.00157645,0.00072351,0.00334
 396,0.00088314,0.01139130,0.09085672,-0.00230582,-0.04815207,-0.008735
 41,-0.00011315,-0.00106277,0.00137409,0.00028445,0.00004257,-0.0008528
 3,0.01054049,0.00136690,0.02395390,0.00254915,0.04626680,-0.09228187,-
 0.00783276,-0.28650289,0.00348318,0.00121582,-0.00006788,-0.00002869,-
 0.00151523,0.00257233,-0.00600016,-0.00280018,-0.01305741,0.10164285,0
 .00828414,0.30700067,-0.07687412,0.07646452,0.04210912,-0.01281937,0.0
 3182454,0.01641300,0.00444950,-0.00088579,-0.00181695,0.00303117,-0.00
 977710,-0.00626708,0.00303880,-0.01060052,-0.00537548,0.08514662,0.079
 33856,-0.24056306,-0.10636774,-0.00246172,-0.00151417,0.00059164,-0.00
 010721,0.00208144,-0.00022327,0.00924988,-0.01746010,-0.01271146,-0.00
 018732,0.00044113,0.00214828,-0.08630407,0.25578648,0.04248823,-0.1063
 9676,-0.10673382,-0.00091825,0.00047509,0.00002626,-0.00061620,0.00036
 098,-0.00025755,-0.00670006,0.01425705,0.00752913,0.01109928,-0.024700
 05,-0.01205810,-0.04555491,0.11543275,0.10996943,-0.01284775,0.0280785
 6,0.01749988,-0.08352459,0.07362403,0.04165270,0.00650931,-0.01793351,
 -0.00416795,0.00097569,-0.00050045,0.00015033,0.00177083,-0.00003761,-
 0.00060983,-0.00745262,-0.00003544,-0.00001909,0.09012319,-0.00110889,
 0.00207061,-0.00149901,0.07383523,-0.21058918,-0.09608887,0.00115274,-
 0.03593570,-0.00116963,0.00120377,0.00012508,-0.00023945,-0.00010180,-
 0.00020302,0.00027132,-0.00056674,0.00122511,0.00006388,-0.07517267,0.
 24223559,-0.00248305,-0.00099727,0.00089968,0.04114398,-0.10027657,-0.
 11574459,-0.00321687,0.02218313,0.00989963,0.00013915,-0.00012310,-0.0
 0008567,0.00047800,0.00074840,0.00083022,0.00037948,0.00067570,0.00147
 737,-0.04736278,0.10122493,0.11328299,-0.01308762,-0.00170598,-0.03207
 897,-0.08691594,-0.00018189,-0.09720590,0.00497164,-0.00385630,0.01610
 194,0.00114301,-0.00029406,0.00030511,-0.00719400,0.00015965,0.0002807
 5,0.00164432,0.00033731,0.00013118,0.00474801,0.00143033,0.01152232,0.
 09472184,0.00074303,0.00095157,-0.00026698,-0.00396151,-0.05107962,-0.
 02012770,0.00802201,-0.00641183,0.03671634,0.00000853,0.00008897,-0.00
 019661,-0.00029039,0.00113672,0.00067048,-0.00014746,0.00011002,0.0009
 0874,-0.00924744,0.00052126,-0.02380882,0.00654561,0.05968796,0.002465
 50,-0.00066055,0.00267380,-0.09262199,-0.00841678,-0.28702486,-0.00353
 057,0.00569873,-0.01738761,-0.00081440,-0.00023279,0.00014393,0.000734
 72,-0.00014018,0.00168975,-0.00018739,0.00033268,0.00041781,-0.0063770
 7,-0.00083262,-0.01257720,0.09860303,0.00114391,0.31159804,0.00179893,
 -0.00015489,0.00338036,0.00222232,-0.00498998,0.01754542,-0.07844354,-
 0.01252220,-0.18330006,-0.00042273,0.00018997,-0.00068137,-0.00030588,
 -0.00047665,-0.00111076,-0.00016429,0.00017000,0.00008981,-0.00030206,
 -0.00067198,-0.00060023,-0.00003125,-0.00167239,0.00172819,0.07564850,
 0.00026154,0.00107494,-0.00023904,0.01050530,-0.00751195,0.04187686,-0
 .02922751,-0.03252044,-0.03154124,0.00037192,-0.00013249,-0.00027231,-
 0.00082185,0.00016375,-0.00044186,-0.00000736,-0.00010686,-0.00040167,
 0.00122454,0.00055026,0.00037360,-0.00243468,-0.00500504,0.00310759,0.
 02012811,0.04348784,0.00017508,-0.00232948,0.00214018,-0.01102921,-0.0
 0413059,-0.02217139,-0.15392499,0.01591630,-0.45525905,-0.00095149,-0.
 00041376,0.00063950,0.00090742,0.00006795,-0.00040670,0.00030020,0.000
 12142,-0.00037054,-0.00076619,-0.00173055,0.00201757,0.00234054,0.0049
 6063,0.00046634,0.16294863,-0.01246193,0.47294409\\0.00001186,0.000053
 18,0.00000363,-0.00004725,-0.00003299,0.00003244,0.00000468,0.00003229
 ,-0.00000782,-0.00000353,-0.00000811,-0.00000934,0.00001922,-0.0000134
 9,0.00002351,0.00001798,-0.00002839,-0.00001195,-0.00000299,0.00001638
 ,0.00000599,-0.00000414,-0.00001334,-0.00001958,0.00000416,-0.00000552
 ,-0.00001687\\\@


 THERE IS NO CURE FOR BIRTH AND DEATH SAVE TO ENJOY THE INTERVAL.

                               -- GEORGE SANTAYANA
 Job cpu time:       0 days  0 hours  1 minutes 16.1 seconds.
 Elapsed time:       0 days  0 hours  0 minutes 19.5 seconds.
 File lengths (MBytes):  RWF=    207 Int=      0 D2E=      0 Chk=      2 Scr=      1
 Normal termination of Gaussian 16 at Thu Dec 16 11:32:56 2021.
