

     ************************************************************************
     *************** Dalton - An Electronic Structure Program ***************
     ************************************************************************

    This is output from DALTON release Dalton2016.1 (2016)
         ( Web site: http://daltonprogram.org )

   ----------------------------------------------------------------------------

    NOTE:
     
    Dalton is an experimental code for the evaluation of molecular
    properties using (MC)SCF, DFT, CI, and CC wave functions.
    The authors accept no responsibility for the performance of
    the code or for the correctness of the results.
     
    The code (in whole or part) is provided under a licence and
    is not to be reproduced for further distribution without
    the written permission of the authors or their representatives.
     
    See the home page "http://daltonprogram.org" for further information.
     
    If results obtained with this code are published,
    the appropriate citations would be both of:
     
       K. Aidas, C. Angeli, K. L. Bak, V. Bakken, R. Bast,
       L. Boman, O. Christiansen, R. Cimiraglia, S. Coriani,
       P. Dahle, E. K. Dalskov, U. Ekstroem,
       T. Enevoldsen, J. J. Eriksen, P. Ettenhuber, B. Fernandez,
       L. Ferrighi, H. Fliegl, L. Frediani, K. Hald, A. Halkier,
       C. Haettig, H. Heiberg, T. Helgaker, A. C. Hennum,
       H. Hettema, E. Hjertenaes, S. Hoest, I.-M. Hoeyvik,
       M. F. Iozzi, B. Jansik, H. J. Aa. Jensen, D. Jonsson,
       P. Joergensen, J. Kauczor, S. Kirpekar,
       T. Kjaergaard, W. Klopper, S. Knecht, R. Kobayashi, H. Koch,
       J. Kongsted, A. Krapp, K. Kristensen, A. Ligabue,
       O. B. Lutnaes, J. I. Melo, K. V. Mikkelsen, R. H. Myhre,
       C. Neiss, C. B. Nielsen, P. Norman, J. Olsen,
       J. M. H. Olsen, A. Osted, M. J. Packer, F. Pawlowski,
       T. B. Pedersen, P. F. Provasi, S. Reine, Z. Rinkevicius,
       T. A. Ruden, K. Ruud, V. Rybkin, P. Salek, C. C. M. Samson,
       A. Sanchez de Meras, T. Saue, S. P. A. Sauer,
       B. Schimmelpfennig, K. Sneskov, A. H. Steindal,
       K. O. Sylvester-Hvid, P. R. Taylor, A. M. Teale,
       E. I. Tellgren, D. P. Tew, A. J. Thorvaldsen, L. Thoegersen,
       O. Vahtras, M. A. Watson, D. J. D. Wilson, M. Ziolkowski
       and H. Agren,
       "The Dalton quantum chemistry program system",
       WIREs Comput. Mol. Sci. 2014, 4:269–284 (doi: 10.1002/wcms.1172)
     
    and
     
       Dalton, a Molecular Electronic Structure Program,
       Release Dalton2016.1 (2016), see http://daltonprogram.org
   ----------------------------------------------------------------------------

    Authors in alphabetical order (major contribution(s) in parenthesis):

  Kestutis Aidas,           Vilnius University,           Lithuania   (QM/MM)
  Celestino Angeli,         University of Ferrara,        Italy       (NEVPT2)
  Keld L. Bak,              UNI-C,                        Denmark     (AOSOPPA, non-adiabatic coupling, magnetic properties)
  Vebjoern Bakken,          University of Oslo,           Norway      (DALTON; geometry optimizer, symmetry detection)
  Radovan Bast,             UiT The Arctic U. of Norway,  Norway      (DALTON installation and execution frameworks)
  Pablo Baudin,             University of Valencia,       Spain       (Cholesky excitation energies)
  Linus Boman,              NTNU,                         Norway      (Cholesky decomposition and subsystems)
  Ove Christiansen,         Aarhus University,            Denmark     (CC module)
  Renzo Cimiraglia,         University of Ferrara,        Italy       (NEVPT2)
  Sonia Coriani,            University of Trieste,        Italy       (CC module, MCD in RESPONS)
  Janusz Cukras,            University of Trieste,        Italy       (MChD in RESPONS)
  Paal Dahle,               University of Oslo,           Norway      (Parallelization)
  Erik K. Dalskov,          UNI-C,                        Denmark     (SOPPA)
  Thomas Enevoldsen,        Univ. of Southern Denmark,    Denmark     (SOPPA)
  Janus J. Eriksen,         Aarhus University,            Denmark     (Polarizable embedding model, TDA)
  Rasmus Faber,             University of Copenhagen,     Denmark     (Vib.avg. NMR with SOPPA, parallel AO-SOPPA)
  Berta Fernandez,          U. of Santiago de Compostela, Spain       (doublet spin, ESR in RESPONS)
  Lara Ferrighi,            Aarhus University,            Denmark     (PCM Cubic response)
  Heike Fliegl,             University of Oslo,           Norway      (CCSD(R12))
  Luca Frediani,            UiT The Arctic U. of Norway,  Norway      (PCM)
  Bin Gao,                  UiT The Arctic U. of Norway,  Norway      (Gen1Int library)
  Christof Haettig,         Ruhr-University Bochum,       Germany     (CC module)
  Kasper Hald,              Aarhus University,            Denmark     (CC module)
  Asger Halkier,            Aarhus University,            Denmark     (CC module)
  Frederik Beyer Hansen,    University of Copenhagen,     Denmark     (Parallel AO-SOPPA)
  Erik D. Hedegaard,        Univ. of Southern Denmark,    Denmark     (Polarizable embedding model, QM/MM)
  Hanne Heiberg,            University of Oslo,           Norway      (geometry analysis, selected one-electron integrals)
  Trygve Helgaker,          University of Oslo,           Norway      (DALTON; ABACUS, ERI, DFT modules, London, and much more)
  Alf Christian Hennum,     University of Oslo,           Norway      (Parity violation)
  Hinne Hettema,            University of Auckland,       New Zealand (quadratic response in RESPONS; SIRIUS supersymmetry)
  Eirik Hjertenaes,         NTNU,                         Norway      (Cholesky decomposition)
  Maria Francesca Iozzi,    University of Oslo,           Norway      (RPA)
  Brano Jansik              Technical Univ. of Ostrava    Czech Rep.  (DFT cubic response)
  Hans Joergen Aa. Jensen,  Univ. of Southern Denmark,    Denmark     (DALTON; SIRIUS, RESPONS, ABACUS modules, London, and much more)
  Dan Jonsson,              UiT The Arctic U. of Norway,  Norway      (cubic response in RESPONS module)
  Poul Joergensen,          Aarhus University,            Denmark     (RESPONS, ABACUS, and CC modules)
  Maciej Kaminski,          University of Warsaw,         Poland      (CPPh in RESPONS)
  Joanna Kauczor,           Linkoeping University,        Sweden      (Complex polarization propagator (CPP) module)
  Sheela Kirpekar,          Univ. of Southern Denmark,    Denmark     (Mass-velocity & Darwin integrals)
  Wim Klopper,              KIT Karlsruhe,                Germany     (R12 code in CC, SIRIUS, and ABACUS modules)
  Stefan Knecht,            ETH Zurich,                   Switzerland (Parallel CI and MCSCF)
  Rika Kobayashi,           Australian National Univ.,    Australia   (DIIS in CC, London in MCSCF)
  Henrik Koch,              NTNU,                         Norway      (CC module, Cholesky decomposition)
  Jacob Kongsted,           Univ. of Southern Denmark,    Denmark     (Polarizable embedding model, QM/MM)
  Andrea Ligabue,           University of Modena,         Italy       (CTOCD, AOSOPPA)
  Nanna H. List             Univ. of Southern Denmark,    Denmark     (Polarizable embedding model)
  Ola B. Lutnaes,           University of Oslo,           Norway      (DFT Hessian)
  Juan I. Melo,             University of Buenos Aires,   Argentina   (LRESC, Relativistic Effects on NMR Shieldings)
  Kurt V. Mikkelsen,        University of Copenhagen,     Denmark     (MC-SCRF and QM/MM)
  Rolf H. Myhre,            NTNU,                         Norway      (Cholesky, subsystems and ECC2)
  Christian Neiss,          Univ. Erlangen-Nuernberg,     Germany     (CCSD(R12))
  Christian B. Nielsen,     University of Copenhagen,     Denmark     (QM/MM)
  Patrick Norman,           Linkoeping University,        Sweden      (Cubic response and complex frequency response in RESPONS)
  Jeppe Olsen,              Aarhus University,            Denmark     (SIRIUS CI/density modules)
  Jogvan Magnus H. Olsen,   Univ. of Southern Denmark,    Denmark     (Polarizable embedding model, QM/MM)
  Anders Osted,             Copenhagen University,        Denmark     (QM/MM)
  Martin J. Packer,         University of Sheffield,      UK          (SOPPA)
  Filip Pawlowski,          Kazimierz Wielki University,  Poland      (CC3)
  Morten N. Pedersen,       Univ. of Southern Denmark,    Denmark     (Polarizable embedding model)
  Thomas B. Pedersen,       University of Oslo,           Norway      (Cholesky decomposition)
  Patricio F. Provasi,      University of Northeastern,   Argentina   (Analysis of coupling constants in localized orbitals)
  Zilvinas Rinkevicius,     KTH Stockholm,                Sweden      (open-shell DFT, ESR)
  Elias Rudberg,            KTH Stockholm,                Sweden      (DFT grid and basis info)
  Torgeir A. Ruden,         University of Oslo,           Norway      (Numerical derivatives in ABACUS)
  Kenneth Ruud,             UiT The Arctic U. of Norway,  Norway      (DALTON; ABACUS magnetic properties and much more)
  Pawel Salek,              KTH Stockholm,                Sweden      (DALTON; DFT code)
  Claire C. M. Samson       University of Karlsruhe       Germany     (Boys localization, r12 integrals in ERI)
  Alfredo Sanchez de Meras, University of Valencia,       Spain       (CC module, Cholesky decomposition)
  Trond Saue,               Paul Sabatier University,     France      (direct Fock matrix construction)
  Stephan P. A. Sauer,      University of Copenhagen,     Denmark     (SOPPA(CCSD), SOPPA prop., AOSOPPA, vibrational g-factors)
  Bernd Schimmelpfennig,    Forschungszentrum Karlsruhe,  Germany     (AMFI module)
  Kristian Sneskov,         Aarhus University,            Denmark     (Polarizable embedding model, QM/MM)
  Arnfinn H. Steindal,      UiT The Arctic U. of Norway,  Norway      (parallel QM/MM, Polarizable embedding model)
  Casper Steinmann,         Univ. of Southern Denmark,    Denmark     (QFIT, Polarizable embedding model)
  K. O. Sylvester-Hvid,     University of Copenhagen,     Denmark     (MC-SCRF)
  Peter R. Taylor,          VLSCI/Univ. of Melbourne,     Australia   (Symmetry handling ABACUS, integral transformation)
  Andrew M. Teale,          University of Nottingham,     England     (DFT-AC, DFT-D)
  David P. Tew,             University of Bristol,        England     (CCSD(R12))
  Olav Vahtras,             KTH Stockholm,                Sweden      (triplet response, spin-orbit, ESR, TDDFT, open-shell DFT)
  David J. Wilson,          La Trobe University,          Australia   (DFT Hessian and DFT magnetizabilities)
  Hans Agren,               KTH Stockholm,                Sweden      (SIRIUS module, RESPONS, MC-SCRF solvation model)
 --------------------------------------------------------------------------------

     Date and time (Linux)  : Tue Dec 14 17:35:45 2021
     Host name              : node664                                 

 * Work memory size             :   512000000 =  3.815 gigabytes.

 * Directories for basis set searches:
   1) /home/magbuk/bin/UCPH-KVM/test_systems
   2) /home/sauer/source/DALTON-2016/build/basis


Compilation information
-----------------------

 Who compiled             | sauer
 Host                     | sunray
 System                   | Linux-3.16.0-4-amd64
 CMake generator          | Unix Makefiles
 Processor                | x86_64
 64-bit integers          | OFF
 MPI                      | OFF
 Fortran compiler         | /opt/intel/bin/ifort
 Fortran compiler version | ifort (IFORT) 13.0.1 20121010
 C compiler               | /opt/intel/bin/icc
 C compiler version       | icc (ICC) 13.0.1 20121010
 C++ compiler             | /opt/intel/bin/icpc
 C++ compiler version     | icpc (ICC) 13.0.1 20121010
 BLAS                     | /opt/intel/mkl/lib/intel64/libmkl_intel_lp64.so;/o
                          | pt/intel/mkl/lib/intel64/libmkl_sequential.so;/opt
                          | /intel/mkl/lib/intel64/libmkl_core.so;/usr/lib/x86
                          | _64-linux-gnu/libpthread.so;/usr/lib/x86_64-linux-
                          | gnu/libm.so
 LAPACK                   | /opt/intel/mkl/lib/intel64/libmkl_lapack95_lp64.a;
                          | /opt/intel/mkl/lib/intel64/libmkl_intel_lp64.so
 Static linking           | OFF
 Last Git revision        | a10ef0cf7cc62686ecfeaafb7364c9b014fdc003
 Configuration time       | 2016-10-13 16:30:54.213896


   Content of the .dal input file
 ----------------------------------

**DALTON INPUT                                    
.RUN WAVE FUNCTIONS                               
**WAVE FUNCTIONS                                  
.HF                                               
.MP2                                              
**END OF DALTON                                   


   Content of the .mol file
 ----------------------------

ATOMBASIS                                                                      
./Water.xyz                                                                    
Hej Magnus                                                                     
Atomtypes=2 Charge=0 NoSymmetry Angstrom                                       
  8.0000     1 Bas=cc-pVDZ Aux=cc-pVDZ-RI                                      
O     0.906440000        -0.069780000         0.021830000                      
  1.0000     2 Bas=cc-pVDZ Aux=cc-pVDZ-RI                                      
H     1.874330000        -0.048440000        -0.019410000                      
H     0.627590000         0.356710000        -0.802370000                      


       *******************************************************************
       *********** Output from DALTON general input processing ***********
       *******************************************************************

 --------------------------------------------------------------------------------
   Overall default print level:    0
   Print level for DALTON.STAT:    1

    HERMIT 1- and 2-electron integral sections will be executed
    "Old" integral transformation used (limited to max 255 basis functions)
    Wave function sections will be executed (SIRIUS module)
 --------------------------------------------------------------------------------


   ****************************************************************************
   *************** Output of molecule and basis set information ***************
   ****************************************************************************


    The two title cards from your ".mol" input:
    ------------------------------------------------------------------------
 1: ./Water.xyz                                                             
 2: Hej Magnus                                                              
    ------------------------------------------------------------------------

  Coordinates are entered in Angstrom and converted to atomic units.
          - Conversion factor : 1 bohr = 0.52917721 A

  Atomic type no.    1
  --------------------
  Nuclear charge:   8.00000
  Number of symmetry independent centers:    1
  Number of basis sets to read;    2
  The basis set is "cc-pVDZ Aux=cc-pVDZ-RI" from the basis set library.
  Basis set file used for this atomic type with Z =   8 :
     "/home/sauer/source/DALTON-2016/build/basis/cc-pVDZ"

  Atomic type no.    2
  --------------------
  Nuclear charge:   1.00000
  Number of symmetry independent centers:    2
  Number of basis sets to read;    2
  The basis set is "cc-pVDZ Aux=cc-pVDZ-RI" from the basis set library.
  Basis set file used for this atomic type with Z =   1 :
     "/home/sauer/source/DALTON-2016/build/basis/cc-pVDZ"


                         SYMGRP: Point group information
                         -------------------------------

@    Point group: C1 


                                 Isotopic Masses
                                 ---------------

                           O          15.994915
                           H           1.007825
                           H           1.007825

                       Total mass:    18.010565 amu
                       Natural abundance:  99.730 %

 Center-of-mass coordinates (a.u.):    1.785785   -0.084510   -0.050263


  Atoms and basis sets
  --------------------

  Number of atom types :    2
  Total number of atoms:    3

  label    atoms   charge   prim   cont     basis
  ----------------------------------------------------------------------
  O           1    8.0000    26    14      [9s4p1d|3s2p1d]                                    
  H           2    1.0000     7     5      [4s1p|2s1p]                                        
  ----------------------------------------------------------------------
  total:      3   10.0000    40    24
  ----------------------------------------------------------------------
  Spherical harmonic basis used.

  Threshold for neglecting AO integrals:  1.00D-12


  Cartesian Coordinates (a.u.)
  ----------------------------

  Total number of coordinates:    9
  O       :     1  x   1.7129233487    2  y  -0.1318650890    3  z   0.0412527213
  H       :     4  x   3.5419703679    5  y  -0.0915383335    6  z  -0.0366795841
  H       :     7  x   1.1859732188    8  y   0.6740842060    9  z  -1.5162595509


   Interatomic separations (in Angstrom):
   --------------------------------------

            O           H           H     
            ------      ------      ------
 O     :    0.000000
 H     :    0.969003    0.000000
 H     :    0.968998    1.526936    0.000000


  Max    interatomic separation is    1.5269 Angstrom (    2.8855 Bohr)
  between atoms    3 and    2, "H     " and "H     ".

  Min HX interatomic separation is    0.9690 Angstrom (    1.8311 Bohr)


  Bond distances (Angstrom):
  --------------------------

                  atom 1     atom 2       distance
                  ------     ------       --------
  bond distance:  H          O            0.969003
  bond distance:  H          O            0.968998


  Bond angles (degrees):
  ----------------------

                  atom 1     atom 2     atom 3         angle
                  ------     ------     ------         -----
  bond angle:     H          O          H            103.978




 Principal moments of inertia (u*A**2) and principal axes
 --------------------------------------------------------

   IA       0.637405          0.816502   -0.265333    0.512760
   IB       1.174889         -0.577343   -0.375244    0.725167
   IC       1.812294          0.000000    0.888139    0.459576


 Rotational constants
 --------------------

@    The molecule is planar.

               A                   B                   C

         792869.3954         430150.4715         278861.4916 MHz
           26.447276           14.348275            9.301818 cm-1


@  Nuclear repulsion energy :    9.084261347426 Hartree


                     .---------------------------------------.
                     | Starting in Integral Section (HERMIT) |
                     `---------------------------------------'



 ***************************************************************************************
 ****************** Output from **INTEGRALS input processing (HERMIT) ******************
 ***************************************************************************************


 - Using defaults, no **INTEGRALS input found

 Default print level:        1

 * Nuclear model: Point charge

 Calculation of one- and two-electron Hamiltonian integrals.

 Center of mass  (bohr):      1.785785349311     -0.084509652865     -0.050262560496
 Operator center (bohr):      0.000000000000      0.000000000000      0.000000000000
 Gauge origin    (bohr):      0.000000000000      0.000000000000      0.000000000000
 Dipole origin   (bohr):      0.000000000000      0.000000000000      0.000000000000


     ************************************************************************
     ************************** Output from HERINT **************************
     ************************************************************************


 Threshold for neglecting two-electron integrals:  1.00D-12
 HERMIT - Number of two-electron integrals written:       40187 ( 89.0% )
 HERMIT - Megabytes written:                              0.460

  Total CPU  time used in HERMIT:   0.03 seconds
  Total wall time used in HERMIT:   0.42 seconds


                        .----------------------------------.
                        | End of Integral Section (HERMIT) |
                        `----------------------------------'



                   .--------------------------------------------.
                   | Starting in Wave Function Section (SIRIUS) |
                   `--------------------------------------------'


 *** Output from Huckel module :

     Using EWMO model:          T
     Using EHT  model:          F
     Number of Huckel orbitals each symmetry:    7

 EWMO - Energy Weighted Maximum Overlap - is a Huckel type method,
        which normally is better than Extended Huckel Theory.
 Reference: Linderberg and Ohrn, Propagators in Quantum Chemistry (Wiley, 1973)

 Huckel EWMO eigenvalues for symmetry :  1
          -20.684782      -1.604187      -0.776872      -0.689806      -0.616200
           -0.236049      -0.172004

 **********************************************************************
 *SIRIUS* a direct, restricted step, second order MCSCF program       *
 **********************************************************************

 
     Date and time (Linux)  : Tue Dec 14 17:35:46 2021
     Host name              : node664                                 

 Title lines from ".mol" input file:
     ./Water.xyz                                                             
     Hej Magnus                                                              

 Print level on unit LUPRI =   2 is   0
 Print level on unit LUW4  =   2 is   5

@    MP2, closed-shell Moeller-Plesset second-order calculation.

@    This is a combination run starting with
@              a restricted, closed shell Hartree-Fock calculation


 Initial molecular orbitals are obtained according to
 ".MOSTART EWMO  " input option

     Wave function specification
     ============================
@    Wave function type        --- MP2 ---
@    Number of closed shell electrons          10
@    Number of electrons in active shells       0
@    Total charge of the molecule               0

@    Spin multiplicity and 2 M_S                1         0
@    Total number of symmetries                 1 (point group: C1 )
@    Reference state symmetry                   1 (irrep name : A  )

     Orbital specifications
     ======================
@    Abelian symmetry species          All |    1
@                                          |  A  
                                       --- |  ---
@    Occupied SCF orbitals               5 |    5
@    Secondary orbitals                 19 |   19
@    Total number of orbitals           24 |   24
@    Number of basis functions          24 |   24

     Optimization information
     ========================
@    Number of configurations                 1
@    Number of orbital rotations             95
     ------------------------------------------
@    Total number of variables               96

     Maximum number of Fock   iterations      0
     Maximum number of DIIS   iterations     60
     Maximum number of QC-SCF iterations     60
     Threshold for SCF convergence     1.00D-06


 ***********************************************
 ***** DIIS acceleration of SCF iterations *****
 ***********************************************

 C1-DIIS algorithm; max error vectors =    8

 Iter      Total energy        Error norm    Delta(E)  DIIS dim.
 -----------------------------------------------------------------------------
     (Precalculated two-electron integrals are transformed to P-supermatrix elements.
      Threshold for discarding integrals :  1.00D-12 )
@  1    -75.8539629715        1.61892D+00   -7.59D+01    1
      Virial theorem: -V/T =      2.000226
@      MULPOP O      -0.55; H       0.28; H       0.28; 
   1  Level shift: doubly occupied orbital energies shifted by -2.00D-01
 -----------------------------------------------------------------------------
@  2    -76.0165172451        3.37047D-01   -1.63D-01    2
      Virial theorem: -V/T =      2.002488
@      MULPOP O      -0.28; H       0.14; H       0.14; 
   2  Level shift: doubly occupied orbital energies shifted by -5.00D-02
 -----------------------------------------------------------------------------
@  3    -76.0252055051        8.42335D-02   -8.69D-03    3
      Virial theorem: -V/T =      2.000714
@      MULPOP O      -0.30; H       0.15; H       0.15; 
   3  Level shift: doubly occupied orbital energies shifted by -1.25D-02
 -----------------------------------------------------------------------------
@  4    -76.0259412159        2.37127D-02   -7.36D-04    4
      Virial theorem: -V/T =      2.001401
@      MULPOP O      -0.31; H       0.16; H       0.16; 
 -----------------------------------------------------------------------------
@  5    -76.0259808454        7.94486D-03   -3.96D-05    5
      Virial theorem: -V/T =      2.000933
@      MULPOP O      -0.32; H       0.16; H       0.16; 
 -----------------------------------------------------------------------------
@  6    -76.0259878073        1.72069D-03   -6.96D-06    6
      Virial theorem: -V/T =      2.001048
@      MULPOP O      -0.32; H       0.16; H       0.16; 
 -----------------------------------------------------------------------------
@  7    -76.0259883633        2.14453D-04   -5.56D-07    7
      Virial theorem: -V/T =      2.001065
@      MULPOP O      -0.32; H       0.16; H       0.16; 
 -----------------------------------------------------------------------------
@  8    -76.0259883704        3.36790D-05   -7.17D-09    8
      Virial theorem: -V/T =      2.001065
@      MULPOP O      -0.32; H       0.16; H       0.16; 
 -----------------------------------------------------------------------------
@  9    -76.0259883706        5.86040D-06   -1.46D-10    8
      Virial theorem: -V/T =      2.001065
@      MULPOP O      -0.32; H       0.16; H       0.16; 
 -----------------------------------------------------------------------------
@ 10    -76.0259883706        5.51914D-07   -3.99D-12    8

@ *** DIIS converged in  10 iterations !
@     Converged SCF energy, gradient:    -76.025988370570    5.52D-07
    - total time used in SIRFCK :              0.00 seconds

 --- Writing SIRIFC interface file

 CPU and wall time for SCF :       0.008       0.008


 ----- Output from SIRIUS MP2 module -----

 Reference: H.J.Aa.Jensen, P.Jorgensen, H.Agren, and J.Olsen,
            J. Chem. Phys. 88, 3834 (1988); 89, 5354 (1988)

 Checking that the closed shell orbitals are canonical Hartree-Fock orbitals

    Number of electrons  :   10
    Closed shell orbitals:    5

 Generating Fock matrix

 Hartree-Fock electronic energy:         -85.110249717996
 Hartree-Fock total      energy:         -76.025988370570

 Hartree-Fock orbital energies, symmetry 1 ( A  ),    5 occupied SCF orbitals

       -20.55278953    -1.33122404    -0.69205159    -0.56549159    -0.49252080
         0.18346521     0.25454827     0.77919441     0.84576704     1.16470981
         1.20002504     1.25461620     1.44162813     1.47499495     1.66960621
         1.86870687     1.92514728     2.42395487     2.46216387     3.27805736
         3.32541207     3.49720294     3.84926584     4.13712477

    E(LUMO) :     0.18346521   (in symmetry 1)
  - E(HOMO) :    -0.49252080   (in symmetry 1)
  --------------------------
    gap     :     0.67598601

 Integral transformation: Total CPU and WALL times (sec)       0.012       0.012

 MP2 move   0.101544 electrons to unoccupied HF orbitals


@   Hartree-Fock total energy   :           -76.0259883706
@   + MP2 contribution          :            -0.2048312683
@   = MP2 second order energy   :           -76.2308196388

 Natural orbital occupation numbers, symmetry 1 (irrep A  )
 Sum =    10.00000000; RHF =    10.00000000; Difference =     0.00000000

         1.99990755     1.98692526     1.97398636     1.97001762     1.96796529
         0.02372137     0.02145937     0.01746835     0.01034498     0.00548980
         0.00513903     0.00467603     0.00409551     0.00398991     0.00094198
         0.00089768     0.00061882     0.00053166     0.00047696     0.00045826
         0.00040868     0.00039258     0.00004508     0.00004185

 Time used for MP2 natural orbitals :       0.016 CPU seconds,       0.015 wall seconds.

 CPU and wall time for MP2 :       0.016       0.015


                       .-----------------------------------.
                       | --- Final results from SIRIUS --- |
                       `-----------------------------------'


@    Spin multiplicity:           1
@    Spatial symmetry:            1 ( irrep  A   in C1  )
@    Total charge of molecule:    0

@    Final HF energy:             -76.025988370570                 
@    Nuclear repulsion:             9.084261347426
@    Electronic energy:           -85.110249717996

@    Final gradient norm:           0.000000551914

 
     Date and time (Linux)  : Tue Dec 14 17:35:46 2021
     Host name              : node664                                 

File label for MO orbitals:  14Dec21   MP2SAVE 

 (Only coefficients > 0.0100 are printed.)

 Molecular orbitals for symmetry species 1  (A  )
 ------------------------------------------------

    Orbital         1        2        3        4        5        6        7
   1 O   :1s    -1.0006  -0.0015   0.0000   0.0028   0.0000   0.0000   0.0339
   2 O   :1s     0.0053  -0.9222   0.0000   0.0475   0.0000   0.0000   0.4325
   3 O   :1s     0.0028   0.0707   0.0000   0.2114   0.0000   0.0000   0.1617
   4 O   :2px   -0.0043   0.0549  -0.0000  -0.4601  -0.5892   1.0709   0.7598
   5 O   :2py   -0.0028   0.0357  -0.8138  -0.2991   0.1914  -0.3480   0.4939
   6 O   :2pz    0.0054  -0.0690  -0.4211   0.5780  -0.3700   0.6724  -0.9545
   7 O   :2px    0.0007   0.0390  -0.0000   0.0127   0.0945  -0.5266  -0.5449
   8 O   :2py    0.0004   0.0254  -0.0668   0.0083  -0.0307   0.1711  -0.3542
   9 O   :2pz   -0.0008  -0.0490  -0.0345  -0.0160   0.0593  -0.3307   0.6845
  11 O   :3d1-   0.0001  -0.0005   0.0086   0.0110  -0.0099  -0.0141   0.0305
  12 O   :3d0   -0.0000   0.0009   0.0105  -0.0053   0.0166   0.0237  -0.0094
  13 O   :3d1+   0.0000  -0.0034  -0.0048   0.0108   0.0076   0.0109   0.0065
  14 O   :3d2+  -0.0001  -0.0009   0.0061  -0.0063  -0.0147  -0.0210  -0.0269
  15 H   :1s     0.0002  -0.2184  -0.0000  -0.4264  -0.5541  -0.8653  -0.7694
  16 H   :1s    -0.0008   0.1090   0.0000   0.1664   0.1774   0.2290   0.2735
  17 H   :2px   -0.0009   0.0344  -0.0000   0.0276   0.0333   0.0228   0.0238
  18 H   :2py   -0.0001   0.0011  -0.0293  -0.0120   0.0062  -0.0024  -0.0210
  19 H   :2pz    0.0002  -0.0022  -0.0152   0.0232  -0.0120   0.0047   0.0407
  20 H   :1s     0.0002  -0.2184  -0.0000  -0.4265   0.5540   0.8653  -0.7695
  21 H   :1s    -0.0008   0.1090  -0.0000   0.1664  -0.1774  -0.2290   0.2735
  22 H   :2px    0.0001  -0.0091  -0.0000  -0.0338  -0.0016   0.0126  -0.0511
  23 H   :2py   -0.0004   0.0153  -0.0293   0.0080  -0.0165  -0.0091   0.0033
  24 H   :2pz    0.0008  -0.0296  -0.0152  -0.0154   0.0319   0.0176  -0.0064

    Orbital         8        9       10       11       12       13       14
   1 O   :1s    -0.0000  -0.4706   0.0000  -0.3157  -0.0000  -0.1293  -0.0000
   2 O   :1s    -0.0000  -2.4345   0.0000  -1.3959  -0.0000  -0.5392  -0.0000
   3 O   :1s    -0.0000   2.2472  -0.0000   1.9117   0.0000   0.8874   0.0000
   4 O   :2px   -0.0000   0.2721  -0.3112   0.0069   0.0000  -0.0572  -0.0000
   5 O   :2py   -1.2482   0.1768   0.1011   0.0045   0.0000  -0.0372  -0.0980
   6 O   :2pz   -0.6459  -0.3417  -0.1954  -0.0086   0.0000   0.0718  -0.0507
   7 O   :2px    0.0000  -0.5144   0.8010   0.1106   0.0000   0.3093   0.0000
   8 O   :2py    1.4217  -0.3343  -0.2603   0.0719   0.0000   0.2010   0.3009
   9 O   :2pz    0.7357   0.6461   0.5030  -0.1389   0.0000  -0.3885   0.1557
  10 O   :3d2-   0.0239  -0.0475  -0.0908   0.2315   0.5741  -0.1853  -0.4528
  11 O   :3d1-  -0.0220  -0.0543  -0.2281   0.1333   0.2640   0.5626   0.4164
  12 O   :3d0   -0.0270  -0.0070   0.3818   0.0683   0.3232  -0.2281   0.5097
  13 O   :3d1+   0.0124   0.0917   0.1755  -0.4474   0.2971   0.3582  -0.2343
  14 O   :3d2+  -0.0156   0.0890  -0.3385  -0.3069   0.1866  -0.4011   0.2943
  15 H   :1s     0.0000   0.5513  -0.7920  -0.7141  -0.0000  -0.5175  -0.0000
  16 H   :1s    -0.0000  -0.3258   0.6084   0.4140   0.0000   0.3090   0.0000
  17 H   :2px    0.0000  -0.0585   0.0941   0.0647   0.0000   0.0879  -0.0000
  18 H   :2py    0.0748  -0.0376  -0.0377   0.1036   0.2519  -0.0841  -0.1868
  19 H   :2pz    0.0387   0.0727   0.0728  -0.2003   0.1304   0.1626  -0.0966
  20 H   :1s     0.0000   0.5513   0.7920  -0.7141  -0.0000  -0.5175  -0.0000
  21 H   :1s    -0.0000  -0.3258  -0.6084   0.4140   0.0000   0.3090   0.0000
  22 H   :2px    0.0000  -0.0577   0.1086   0.1910  -0.0000  -0.2019  -0.0000
  23 H   :2py    0.0748  -0.0379  -0.0282   0.0626  -0.2520   0.0100  -0.1867
  24 H   :2pz    0.0387   0.0732   0.0546  -0.1209  -0.1304  -0.0194  -0.0966

    Orbital        15
   1 O   :1s     0.3358
   2 O   :1s     1.2725
   3 O   :1s    -2.4167
   4 O   :2px    0.0773
   5 O   :2py    0.0502
   6 O   :2pz   -0.0971
   7 O   :2px   -0.6205
   8 O   :2py   -0.4032
   9 O   :2pz    0.7793
  10 O   :3d2-   0.2165
  11 O   :3d1-   0.3990
  13 O   :3d1+  -0.4183
  14 O   :3d2+  -0.5521
  15 H   :1s     2.1178
  16 H   :1s    -1.2415
  17 H   :2px   -0.1155
  18 H   :2py   -0.0442
  19 H   :2pz    0.0854
  20 H   :1s     2.1177
  21 H   :1s    -1.2414
  22 H   :2px   -0.0522
  23 H   :2py   -0.0648
  24 H   :2pz    0.1252

  Total CPU  time used in SIRIUS :   0.03 seconds
  Total wall time used in SIRIUS :   0.46 seconds

 
     Date and time (Linux)  : Tue Dec 14 17:35:46 2021
     Host name              : node664                                 


                     .---------------------------------------.
                     | End of Wave Function Section (SIRIUS) |
                     `---------------------------------------'

  Total CPU  time used in DALTON:   0.06 seconds
  Total wall time used in DALTON:   1.52 seconds

 
     Date and time (Linux)  : Tue Dec 14 17:35:46 2021
     Host name              : node664                                 
