

     ************************************************************************
     *************** Dalton - An Electronic Structure Program ***************
     ************************************************************************

    This is output from DALTON release Dalton2016.1 (2016)
         ( Web site: http://daltonprogram.org )

   ----------------------------------------------------------------------------

    NOTE:
     
    Dalton is an experimental code for the evaluation of molecular
    properties using (MC)SCF, DFT, CI, and CC wave functions.
    The authors accept no responsibility for the performance of
    the code or for the correctness of the results.
     
    The code (in whole or part) is provided under a licence and
    is not to be reproduced for further distribution without
    the written permission of the authors or their representatives.
     
    See the home page "http://daltonprogram.org" for further information.
     
    If results obtained with this code are published,
    the appropriate citations would be both of:
     
       K. Aidas, C. Angeli, K. L. Bak, V. Bakken, R. Bast,
       L. Boman, O. Christiansen, R. Cimiraglia, S. Coriani,
       P. Dahle, E. K. Dalskov, U. Ekstroem,
       T. Enevoldsen, J. J. Eriksen, P. Ettenhuber, B. Fernandez,
       L. Ferrighi, H. Fliegl, L. Frediani, K. Hald, A. Halkier,
       C. Haettig, H. Heiberg, T. Helgaker, A. C. Hennum,
       H. Hettema, E. Hjertenaes, S. Hoest, I.-M. Hoeyvik,
       M. F. Iozzi, B. Jansik, H. J. Aa. Jensen, D. Jonsson,
       P. Joergensen, J. Kauczor, S. Kirpekar,
       T. Kjaergaard, W. Klopper, S. Knecht, R. Kobayashi, H. Koch,
       J. Kongsted, A. Krapp, K. Kristensen, A. Ligabue,
       O. B. Lutnaes, J. I. Melo, K. V. Mikkelsen, R. H. Myhre,
       C. Neiss, C. B. Nielsen, P. Norman, J. Olsen,
       J. M. H. Olsen, A. Osted, M. J. Packer, F. Pawlowski,
       T. B. Pedersen, P. F. Provasi, S. Reine, Z. Rinkevicius,
       T. A. Ruden, K. Ruud, V. Rybkin, P. Salek, C. C. M. Samson,
       A. Sanchez de Meras, T. Saue, S. P. A. Sauer,
       B. Schimmelpfennig, K. Sneskov, A. H. Steindal,
       K. O. Sylvester-Hvid, P. R. Taylor, A. M. Teale,
       E. I. Tellgren, D. P. Tew, A. J. Thorvaldsen, L. Thoegersen,
       O. Vahtras, M. A. Watson, D. J. D. Wilson, M. Ziolkowski
       and H. Agren,
       "The Dalton quantum chemistry program system",
       WIREs Comput. Mol. Sci. 2014, 4:269–284 (doi: 10.1002/wcms.1172)
     
    and
     
       Dalton, a Molecular Electronic Structure Program,
       Release Dalton2016.1 (2016), see http://daltonprogram.org
   ----------------------------------------------------------------------------

    Authors in alphabetical order (major contribution(s) in parenthesis):

  Kestutis Aidas,           Vilnius University,           Lithuania   (QM/MM)
  Celestino Angeli,         University of Ferrara,        Italy       (NEVPT2)
  Keld L. Bak,              UNI-C,                        Denmark     (AOSOPPA, non-adiabatic coupling, magnetic properties)
  Vebjoern Bakken,          University of Oslo,           Norway      (DALTON; geometry optimizer, symmetry detection)
  Radovan Bast,             UiT The Arctic U. of Norway,  Norway      (DALTON installation and execution frameworks)
  Pablo Baudin,             University of Valencia,       Spain       (Cholesky excitation energies)
  Linus Boman,              NTNU,                         Norway      (Cholesky decomposition and subsystems)
  Ove Christiansen,         Aarhus University,            Denmark     (CC module)
  Renzo Cimiraglia,         University of Ferrara,        Italy       (NEVPT2)
  Sonia Coriani,            University of Trieste,        Italy       (CC module, MCD in RESPONS)
  Janusz Cukras,            University of Trieste,        Italy       (MChD in RESPONS)
  Paal Dahle,               University of Oslo,           Norway      (Parallelization)
  Erik K. Dalskov,          UNI-C,                        Denmark     (SOPPA)
  Thomas Enevoldsen,        Univ. of Southern Denmark,    Denmark     (SOPPA)
  Janus J. Eriksen,         Aarhus University,            Denmark     (Polarizable embedding model, TDA)
  Rasmus Faber,             University of Copenhagen,     Denmark     (Vib.avg. NMR with SOPPA, parallel AO-SOPPA)
  Berta Fernandez,          U. of Santiago de Compostela, Spain       (doublet spin, ESR in RESPONS)
  Lara Ferrighi,            Aarhus University,            Denmark     (PCM Cubic response)
  Heike Fliegl,             University of Oslo,           Norway      (CCSD(R12))
  Luca Frediani,            UiT The Arctic U. of Norway,  Norway      (PCM)
  Bin Gao,                  UiT The Arctic U. of Norway,  Norway      (Gen1Int library)
  Christof Haettig,         Ruhr-University Bochum,       Germany     (CC module)
  Kasper Hald,              Aarhus University,            Denmark     (CC module)
  Asger Halkier,            Aarhus University,            Denmark     (CC module)
  Frederik Beyer Hansen,    University of Copenhagen,     Denmark     (Parallel AO-SOPPA)
  Erik D. Hedegaard,        Univ. of Southern Denmark,    Denmark     (Polarizable embedding model, QM/MM)
  Hanne Heiberg,            University of Oslo,           Norway      (geometry analysis, selected one-electron integrals)
  Trygve Helgaker,          University of Oslo,           Norway      (DALTON; ABACUS, ERI, DFT modules, London, and much more)
  Alf Christian Hennum,     University of Oslo,           Norway      (Parity violation)
  Hinne Hettema,            University of Auckland,       New Zealand (quadratic response in RESPONS; SIRIUS supersymmetry)
  Eirik Hjertenaes,         NTNU,                         Norway      (Cholesky decomposition)
  Maria Francesca Iozzi,    University of Oslo,           Norway      (RPA)
  Brano Jansik              Technical Univ. of Ostrava    Czech Rep.  (DFT cubic response)
  Hans Joergen Aa. Jensen,  Univ. of Southern Denmark,    Denmark     (DALTON; SIRIUS, RESPONS, ABACUS modules, London, and much more)
  Dan Jonsson,              UiT The Arctic U. of Norway,  Norway      (cubic response in RESPONS module)
  Poul Joergensen,          Aarhus University,            Denmark     (RESPONS, ABACUS, and CC modules)
  Maciej Kaminski,          University of Warsaw,         Poland      (CPPh in RESPONS)
  Joanna Kauczor,           Linkoeping University,        Sweden      (Complex polarization propagator (CPP) module)
  Sheela Kirpekar,          Univ. of Southern Denmark,    Denmark     (Mass-velocity & Darwin integrals)
  Wim Klopper,              KIT Karlsruhe,                Germany     (R12 code in CC, SIRIUS, and ABACUS modules)
  Stefan Knecht,            ETH Zurich,                   Switzerland (Parallel CI and MCSCF)
  Rika Kobayashi,           Australian National Univ.,    Australia   (DIIS in CC, London in MCSCF)
  Henrik Koch,              NTNU,                         Norway      (CC module, Cholesky decomposition)
  Jacob Kongsted,           Univ. of Southern Denmark,    Denmark     (Polarizable embedding model, QM/MM)
  Andrea Ligabue,           University of Modena,         Italy       (CTOCD, AOSOPPA)
  Nanna H. List             Univ. of Southern Denmark,    Denmark     (Polarizable embedding model)
  Ola B. Lutnaes,           University of Oslo,           Norway      (DFT Hessian)
  Juan I. Melo,             University of Buenos Aires,   Argentina   (LRESC, Relativistic Effects on NMR Shieldings)
  Kurt V. Mikkelsen,        University of Copenhagen,     Denmark     (MC-SCRF and QM/MM)
  Rolf H. Myhre,            NTNU,                         Norway      (Cholesky, subsystems and ECC2)
  Christian Neiss,          Univ. Erlangen-Nuernberg,     Germany     (CCSD(R12))
  Christian B. Nielsen,     University of Copenhagen,     Denmark     (QM/MM)
  Patrick Norman,           Linkoeping University,        Sweden      (Cubic response and complex frequency response in RESPONS)
  Jeppe Olsen,              Aarhus University,            Denmark     (SIRIUS CI/density modules)
  Jogvan Magnus H. Olsen,   Univ. of Southern Denmark,    Denmark     (Polarizable embedding model, QM/MM)
  Anders Osted,             Copenhagen University,        Denmark     (QM/MM)
  Martin J. Packer,         University of Sheffield,      UK          (SOPPA)
  Filip Pawlowski,          Kazimierz Wielki University,  Poland      (CC3)
  Morten N. Pedersen,       Univ. of Southern Denmark,    Denmark     (Polarizable embedding model)
  Thomas B. Pedersen,       University of Oslo,           Norway      (Cholesky decomposition)
  Patricio F. Provasi,      University of Northeastern,   Argentina   (Analysis of coupling constants in localized orbitals)
  Zilvinas Rinkevicius,     KTH Stockholm,                Sweden      (open-shell DFT, ESR)
  Elias Rudberg,            KTH Stockholm,                Sweden      (DFT grid and basis info)
  Torgeir A. Ruden,         University of Oslo,           Norway      (Numerical derivatives in ABACUS)
  Kenneth Ruud,             UiT The Arctic U. of Norway,  Norway      (DALTON; ABACUS magnetic properties and much more)
  Pawel Salek,              KTH Stockholm,                Sweden      (DALTON; DFT code)
  Claire C. M. Samson       University of Karlsruhe       Germany     (Boys localization, r12 integrals in ERI)
  Alfredo Sanchez de Meras, University of Valencia,       Spain       (CC module, Cholesky decomposition)
  Trond Saue,               Paul Sabatier University,     France      (direct Fock matrix construction)
  Stephan P. A. Sauer,      University of Copenhagen,     Denmark     (SOPPA(CCSD), SOPPA prop., AOSOPPA, vibrational g-factors)
  Bernd Schimmelpfennig,    Forschungszentrum Karlsruhe,  Germany     (AMFI module)
  Kristian Sneskov,         Aarhus University,            Denmark     (Polarizable embedding model, QM/MM)
  Arnfinn H. Steindal,      UiT The Arctic U. of Norway,  Norway      (parallel QM/MM, Polarizable embedding model)
  Casper Steinmann,         Univ. of Southern Denmark,    Denmark     (QFIT, Polarizable embedding model)
  K. O. Sylvester-Hvid,     University of Copenhagen,     Denmark     (MC-SCRF)
  Peter R. Taylor,          VLSCI/Univ. of Melbourne,     Australia   (Symmetry handling ABACUS, integral transformation)
  Andrew M. Teale,          University of Nottingham,     England     (DFT-AC, DFT-D)
  David P. Tew,             University of Bristol,        England     (CCSD(R12))
  Olav Vahtras,             KTH Stockholm,                Sweden      (triplet response, spin-orbit, ESR, TDDFT, open-shell DFT)
  David J. Wilson,          La Trobe University,          Australia   (DFT Hessian and DFT magnetizabilities)
  Hans Agren,               KTH Stockholm,                Sweden      (SIRIUS module, RESPONS, MC-SCRF solvation model)
 --------------------------------------------------------------------------------

     Date and time (Linux)  : Tue Dec 14 17:35:51 2021
     Host name              : node659                                 

 * Work memory size             :   512000000 =  3.815 gigabytes.

 * Directories for basis set searches:
   1) /home/magbuk/bin/UCPH-KVM/test_systems
   2) /home/sauer/source/DALTON-2016/build/basis


Compilation information
-----------------------

 Who compiled             | sauer
 Host                     | sunray
 System                   | Linux-3.16.0-4-amd64
 CMake generator          | Unix Makefiles
 Processor                | x86_64
 64-bit integers          | OFF
 MPI                      | OFF
 Fortran compiler         | /opt/intel/bin/ifort
 Fortran compiler version | ifort (IFORT) 13.0.1 20121010
 C compiler               | /opt/intel/bin/icc
 C compiler version       | icc (ICC) 13.0.1 20121010
 C++ compiler             | /opt/intel/bin/icpc
 C++ compiler version     | icpc (ICC) 13.0.1 20121010
 BLAS                     | /opt/intel/mkl/lib/intel64/libmkl_intel_lp64.so;/o
                          | pt/intel/mkl/lib/intel64/libmkl_sequential.so;/opt
                          | /intel/mkl/lib/intel64/libmkl_core.so;/usr/lib/x86
                          | _64-linux-gnu/libpthread.so;/usr/lib/x86_64-linux-
                          | gnu/libm.so
 LAPACK                   | /opt/intel/mkl/lib/intel64/libmkl_lapack95_lp64.a;
                          | /opt/intel/mkl/lib/intel64/libmkl_intel_lp64.so
 Static linking           | OFF
 Last Git revision        | a10ef0cf7cc62686ecfeaafb7364c9b014fdc003
 Configuration time       | 2016-10-13 16:30:54.213896


   Content of the .dal input file
 ----------------------------------

**DALTON INPUT                                    
.RUN WAVE FUNCTIONS                               
**WAVE FUNCTIONS                                  
.HF                                               
.MP2                                              
**END OF DALTON                                   


   Content of the .mol file
 ----------------------------

ATOMBASIS                                                                      
./Methane.xyz                                                                  
Hej Magnus                                                                     
Atomtypes=2 Charge=0 NoSymmetry Angstrom                                       
  6.0000     1 Bas=cc-pVDZ Aux=cc-pVDZ-RI                                      
C     1.018250000         0.093150000         0.031470000                      
  1.0000     4 Bas=cc-pVDZ Aux=cc-pVDZ-RI                                      
H     2.110450000         0.093150000         0.031470000                      
H     0.654190000        -0.602800000         0.790430000                      
H     0.654180000        -0.216150000        -0.950710000                      
H     0.654180000         1.098400000         0.254700000                      


       *******************************************************************
       *********** Output from DALTON general input processing ***********
       *******************************************************************

 --------------------------------------------------------------------------------
   Overall default print level:    0
   Print level for DALTON.STAT:    1

    HERMIT 1- and 2-electron integral sections will be executed
    "Old" integral transformation used (limited to max 255 basis functions)
    Wave function sections will be executed (SIRIUS module)
 --------------------------------------------------------------------------------


   ****************************************************************************
   *************** Output of molecule and basis set information ***************
   ****************************************************************************


    The two title cards from your ".mol" input:
    ------------------------------------------------------------------------
 1: ./Methane.xyz                                                           
 2: Hej Magnus                                                              
    ------------------------------------------------------------------------

  Coordinates are entered in Angstrom and converted to atomic units.
          - Conversion factor : 1 bohr = 0.52917721 A

  Atomic type no.    1
  --------------------
  Nuclear charge:   6.00000
  Number of symmetry independent centers:    1
  Number of basis sets to read;    2
  The basis set is "cc-pVDZ Aux=cc-pVDZ-RI" from the basis set library.
  Basis set file used for this atomic type with Z =   6 :
     "/home/sauer/source/DALTON-2016/build/basis/cc-pVDZ"

  Atomic type no.    2
  --------------------
  Nuclear charge:   1.00000
  Number of symmetry independent centers:    4
  Number of basis sets to read;    2
  The basis set is "cc-pVDZ Aux=cc-pVDZ-RI" from the basis set library.
  Basis set file used for this atomic type with Z =   1 :
     "/home/sauer/source/DALTON-2016/build/basis/cc-pVDZ"


                         SYMGRP: Point group information
                         -------------------------------

@    Point group: C1 


                                 Isotopic Masses
                                 ---------------

                           C          12.000000
                           H           1.007825
                           H           1.007825
                           H           1.007825
                           H           1.007825

                       Total mass:    16.031300 amu
                       Natural abundance:  98.841 %

 Center-of-mass coordinates (a.u.):    1.924214    0.176028    0.059471


  Atoms and basis sets
  --------------------

  Number of atom types :    2
  Total number of atoms:    5

  label    atoms   charge   prim   cont     basis
  ----------------------------------------------------------------------
  C           1    6.0000    26    14      [9s4p1d|3s2p1d]                                    
  H           4    1.0000     7     5      [4s1p|2s1p]                                        
  ----------------------------------------------------------------------
  total:      5   10.0000    54    34
  ----------------------------------------------------------------------
  Spherical harmonic basis used.

  Threshold for neglecting AO integrals:  1.00D-12


  Cartesian Coordinates (a.u.)
  ----------------------------

  Total number of coordinates:   15
  C       :     1  x   1.9242136268    2  y   0.1760279885    3  z   0.0594696812
  H       :     4  x   3.9881725005    5  y   0.1760279885    6  z   0.0594696812
  H       :     7  x   1.2362399337    8  y  -1.1391269081    9  z   1.4936962210
  H       :    10  x   1.2362210364   11  y  -0.4084643019   12  z  -1.7965815243
  H       :    13  x   1.2362210364   14  y   2.0756751757   15  z   0.4813132440


   Interatomic separations (in Angstrom):
   --------------------------------------

            C           H           H           H           H     
            ------      ------      ------      ------      ------
 C     :    0.000000
 H     :    1.092200    0.000000
 H     :    1.092203    1.783553    0.000000
 H     :    1.092195    1.783554    1.783555    0.000000
 H     :    1.092202    1.783559    1.783561    1.783551    0.000000


  Max    interatomic separation is    1.7836 Angstrom (    3.3704 Bohr)
  between atoms    5 and    3, "H     " and "H     ".

  Min HX interatomic separation is    1.0922 Angstrom (    2.0640 Bohr)


  Bond distances (Angstrom):
  --------------------------

                  atom 1     atom 2       distance
                  ------     ------       --------
  bond distance:  H          C            1.092200
  bond distance:  H          C            1.092203
  bond distance:  H          C            1.092195
  bond distance:  H          C            1.092202


  Bond angles (degrees):
  ----------------------

                  atom 1     atom 2     atom 3         angle
                  ------     ------     ------         -----
  bond angle:     H          C          H            109.471
  bond angle:     H          C          H            109.471
  bond angle:     H          C          H            109.471
  bond angle:     H          C          H            109.471
  bond angle:     H          C          H            109.471
  bond angle:     H          C          H            109.471




 Principal moments of inertia (u*A**2) and principal axes
 --------------------------------------------------------

   IA       3.205947         -0.480915    0.773651   -0.412536
   IB       3.205966          0.875681    0.447242   -0.182091
   IC       3.205971         -0.043628    0.448820    0.892557


 Rotational constants
 --------------------

               A                   B                   C

         157637.9743         157637.0348         157636.7961 MHz
            5.258237            5.258205            5.258198 cm-1


@  Nuclear repulsion energy :   13.408325147652 Hartree


                     .---------------------------------------.
                     | Starting in Integral Section (HERMIT) |
                     `---------------------------------------'



 ***************************************************************************************
 ****************** Output from **INTEGRALS input processing (HERMIT) ******************
 ***************************************************************************************


 - Using defaults, no **INTEGRALS input found

 Default print level:        1

 * Nuclear model: Point charge

 Calculation of one- and two-electron Hamiltonian integrals.

 Center of mass  (bohr):      1.924213626775      0.176027988543      0.059470869150
 Operator center (bohr):      0.000000000000      0.000000000000      0.000000000000
 Gauge origin    (bohr):      0.000000000000      0.000000000000      0.000000000000
 Dipole origin   (bohr):      0.000000000000      0.000000000000      0.000000000000


     ************************************************************************
     ************************** Output from HERINT **************************
     ************************************************************************


 Threshold for neglecting two-electron integrals:  1.00D-12
 HERMIT - Number of two-electron integrals written:      162788 ( 91.8% )
 HERMIT - Megabytes written:                              1.869

  Time used in TWOINT     is       0.12 seconds
  Total CPU  time used in HERMIT:   0.14 seconds
  Total wall time used in HERMIT:   0.46 seconds


                        .----------------------------------.
                        | End of Integral Section (HERMIT) |
                        `----------------------------------'



                   .--------------------------------------------.
                   | Starting in Wave Function Section (SIRIUS) |
                   `--------------------------------------------'


 *** Output from Huckel module :

     Using EWMO model:          T
     Using EHT  model:          F
     Number of Huckel orbitals each symmetry:    9

 EWMO - Energy Weighted Maximum Overlap - is a Huckel type method,
        which normally is better than Extended Huckel Theory.
 Reference: Linderberg and Ohrn, Propagators in Quantum Chemistry (Wiley, 1973)

 Huckel EWMO eigenvalues for symmetry :  1
          -11.350737      -1.445706      -0.660544      -0.660542      -0.660541
           -0.126257      -0.122292      -0.122291      -0.122290

 **********************************************************************
 *SIRIUS* a direct, restricted step, second order MCSCF program       *
 **********************************************************************

 
     Date and time (Linux)  : Tue Dec 14 17:35:53 2021
     Host name              : node659                                 

 Title lines from ".mol" input file:
     ./Methane.xyz                                                           
     Hej Magnus                                                              

 Print level on unit LUPRI =   2 is   0
 Print level on unit LUW4  =   2 is   5

@    MP2, closed-shell Moeller-Plesset second-order calculation.

@    This is a combination run starting with
@              a restricted, closed shell Hartree-Fock calculation


 Initial molecular orbitals are obtained according to
 ".MOSTART EWMO  " input option

     Wave function specification
     ============================
@    Wave function type        --- MP2 ---
@    Number of closed shell electrons          10
@    Number of electrons in active shells       0
@    Total charge of the molecule               0

@    Spin multiplicity and 2 M_S                1         0
@    Total number of symmetries                 1 (point group: C1 )
@    Reference state symmetry                   1 (irrep name : A  )

     Orbital specifications
     ======================
@    Abelian symmetry species          All |    1
@                                          |  A  
                                       --- |  ---
@    Occupied SCF orbitals               5 |    5
@    Secondary orbitals                 29 |   29
@    Total number of orbitals           34 |   34
@    Number of basis functions          34 |   34

     Optimization information
     ========================
@    Number of configurations                 1
@    Number of orbital rotations            145
     ------------------------------------------
@    Total number of variables              146

     Maximum number of Fock   iterations      0
     Maximum number of DIIS   iterations     60
     Maximum number of QC-SCF iterations     60
     Threshold for SCF convergence     1.00D-06


 ***********************************************
 ***** DIIS acceleration of SCF iterations *****
 ***********************************************

 C1-DIIS algorithm; max error vectors =    8

 Iter      Total energy        Error norm    Delta(E)  DIIS dim.
 -----------------------------------------------------------------------------
     (Precalculated two-electron integrals are transformed to P-supermatrix elements.
      Threshold for discarding integrals :  1.00D-12 )
@  1    -39.9980121367        1.55938D+00   -4.00D+01    1
      Virial theorem: -V/T =      2.037765
@      MULPOP C       0.37; H      -0.09; H      -0.09; H      -0.09; H      -0.09; 
   1  Level shift: doubly occupied orbital energies shifted by -2.00D-01
 -----------------------------------------------------------------------------
@  2    -40.1835988377        4.71249D-01   -1.86D-01    2
      Virial theorem: -V/T =      1.997291
@      MULPOP C      -0.26; H       0.06; H       0.06; H       0.06; H       0.06; 
   2  Level shift: doubly occupied orbital energies shifted by -1.00D-01
 -----------------------------------------------------------------------------
@  3    -40.1977440395        8.54041D-02   -1.41D-02    3
      Virial theorem: -V/T =      2.004411
@      MULPOP C      -0.14; H       0.03; H       0.03; H       0.03; H       0.03; 
   3  Level shift: doubly occupied orbital energies shifted by -2.50D-02
 -----------------------------------------------------------------------------
@  4    -40.1986669730        1.77696D-02   -9.23D-04    4
      Virial theorem: -V/T =      2.003121
@      MULPOP C      -0.15; H       0.04; H       0.04; H       0.04; H       0.04; 
 -----------------------------------------------------------------------------
@  5    -40.1987061017        1.63639D-03   -3.91D-05    5
      Virial theorem: -V/T =      2.002704
@      MULPOP C      -0.15; H       0.04; H       0.04; H       0.04; H       0.04; 
 -----------------------------------------------------------------------------
@  6    -40.1987065268        1.71860D-04   -4.25D-07    6
      Virial theorem: -V/T =      2.002689
@      MULPOP C      -0.15; H       0.04; H       0.04; H       0.04; H       0.04; 
 -----------------------------------------------------------------------------
@  7    -40.1987065304        8.49298D-06   -3.60D-09    7
      Virial theorem: -V/T =      2.002686
@      MULPOP C      -0.15; H       0.04; H       0.04; H       0.04; H       0.04; 
 -----------------------------------------------------------------------------
@  8    -40.1987065304        6.74814D-07   -7.28D-12    8

@ *** DIIS converged in   8 iterations !
@     Converged SCF energy, gradient:    -40.198706530396    6.75D-07
    - total time used in SIRFCK :              0.00 seconds

 --- Writing SIRIFC interface file

 CPU and wall time for SCF :       0.052       0.055


 ----- Output from SIRIUS MP2 module -----

 Reference: H.J.Aa.Jensen, P.Jorgensen, H.Agren, and J.Olsen,
            J. Chem. Phys. 88, 3834 (1988); 89, 5354 (1988)

 Checking that the closed shell orbitals are canonical Hartree-Fock orbitals

    Number of electrons  :   10
    Closed shell orbitals:    5

 Generating Fock matrix

 Hartree-Fock electronic energy:         -53.607031678048
 Hartree-Fock total      energy:         -40.198706530396

 Hartree-Fock orbital energies, symmetry 1 ( A  ),    5 occupied SCF orbitals

       -11.21722593    -0.94109888    -0.54201402    -0.54201185    -0.54201106
         0.19274856     0.27368001     0.27368022     0.27368076     0.58958979
         0.58959012     0.58959197     0.88806699     0.88806761     0.88806990
         0.93101372     1.13122044     1.13122232     1.25607487     1.68408861
         1.68409053     1.68409082     1.89130863     1.89131001     1.89131296
         2.20908582     2.20908965     2.20909156     2.53972052     2.53972505
         2.74225639     2.78941395     2.78941807     2.78942544

    E(LUMO) :     0.19274856   (in symmetry 1)
  - E(HOMO) :    -0.54201106   (in symmetry 1)
  --------------------------
    gap     :     0.73475961

 Integral transformation: Total CPU and WALL times (sec)       0.072       0.073

 MP2 move   0.109207 electrons to unoccupied HF orbitals


@   Hartree-Fock total energy   :           -40.1987065304
@   + MP2 contribution          :            -0.1642173748
@   = MP2 second order energy   :           -40.3629239052

 Natural orbital occupation numbers, symmetry 1 (irrep A  )
 Sum =    10.00000000; RHF =    10.00000000; Difference =     0.00000000

         1.99979772     1.98224515     1.96968636     1.96968625     1.96968622
         0.01575602     0.01575598     0.01575586     0.01209675     0.00778438
         0.00778438     0.00778435     0.00601991     0.00601990     0.00225683
         0.00124142     0.00124141     0.00124141     0.00112875     0.00112874
         0.00112874     0.00080306     0.00080306     0.00080305     0.00046001
         0.00033011     0.00033011     0.00033011     0.00032056     0.00032056
         0.00008221     0.00006355     0.00006355     0.00006355

 Time used for MP2 natural orbitals :       0.080 CPU seconds,       0.080 wall seconds.

 CPU and wall time for MP2 :       0.080       0.080


                       .-----------------------------------.
                       | --- Final results from SIRIUS --- |
                       `-----------------------------------'


@    Spin multiplicity:           1
@    Spatial symmetry:            1 ( irrep  A   in C1  )
@    Total charge of molecule:    0

@    Final HF energy:             -40.198706530396                 
@    Nuclear repulsion:            13.408325147652
@    Electronic energy:           -53.607031678048

@    Final gradient norm:           0.000000674814

 
     Date and time (Linux)  : Tue Dec 14 17:35:53 2021
     Host name              : node659                                 

File label for MO orbitals:  14Dec21   MP2SAVE 

 (Only coefficients > 0.0100 are printed.)

 Molecular orbitals for symmetry species 1  (A  )
 ------------------------------------------------

    Orbital         1        2        3        4        5        6        7
   1 C   :1s     1.0022  -0.0187  -0.0000   0.0000   0.0000  -0.0000   0.0000
   2 C   :1s     0.0057   0.7484   0.0000   0.0000   0.0000  -0.0000   0.0000
   3 C   :1s    -0.0106  -0.2031   0.0000   0.0000  -0.0000   0.0000  -0.0000
   4 C   :2px   -0.0000   0.0000   0.3490  -0.4836   0.2438   0.7136  -0.9375
   5 C   :2py    0.0000  -0.0000   0.1061   0.3454   0.5334   1.0571   0.9469
   6 C   :2pz    0.0000  -0.0000   0.5311   0.2488  -0.2667  -0.6439   0.5155
   7 C   :2px    0.0000  -0.0000  -0.0573   0.0794  -0.0400  -0.3292   0.4325
   8 C   :2py    0.0000   0.0000  -0.0174  -0.0567  -0.0876  -0.4876  -0.4368
   9 C   :2pz   -0.0000   0.0000  -0.0872  -0.0408   0.0438   0.2970  -0.2378
  10 C   :3d2-  -0.0000   0.0000  -0.0024  -0.0078  -0.0120   0.0245   0.0220
  11 C   :3d1-  -0.0000   0.0000  -0.0113   0.0004   0.0170  -0.0379  -0.0055
  12 C   :3d0    0.0000   0.0000  -0.0180  -0.0023  -0.0119   0.0270   0.0114
  13 C   :3d1+   0.0000   0.0000  -0.0119  -0.0056   0.0060  -0.0149   0.0120
  14 C   :3d2+   0.0000   0.0000   0.0053  -0.0230   0.0041  -0.0175   0.0501
  15 H   :1s    -0.0027   0.3121   0.3540  -0.4906   0.2473  -0.5000   0.6568
  16 H   :1s     0.0024  -0.1261  -0.0886   0.1228  -0.0619   0.0791  -0.1040
  17 H   :2px    0.0007  -0.0249  -0.0103   0.0143  -0.0072  -0.0142   0.0187
  18 H   :2py    0.0000  -0.0000   0.0022   0.0072   0.0111   0.0185   0.0166
  19 H   :2pz   -0.0000  -0.0000   0.0110   0.0052  -0.0055  -0.0113   0.0090
  20 H   :1s    -0.0027   0.3121   0.1878   0.1156  -0.6153   0.9520  -0.0472
  21 H   :1s     0.0024  -0.1261  -0.0470  -0.0289   0.1540  -0.1507   0.0075
  22 H   :2px   -0.0002   0.0083   0.0103  -0.0081  -0.0051  -0.0045  -0.0156
  23 H   :2py   -0.0005   0.0159   0.0081   0.0108  -0.0084  -0.0139   0.0182
  24 H   :2pz    0.0005  -0.0173   0.0045   0.0012   0.0157   0.0241   0.0073
  25 H   :1s    -0.0027   0.3121  -0.6330  -0.1627   0.0077  -0.0293   0.2937
  26 H   :1s     0.0024  -0.1261   0.1584   0.0407  -0.0019   0.0046  -0.0465
  27 H   :2px   -0.0002   0.0083  -0.0032  -0.0127   0.0052   0.0130  -0.0216
  28 H   :2py   -0.0002   0.0071  -0.0067   0.0049   0.0112   0.0190   0.0121
  29 H   :2pz   -0.0007   0.0224  -0.0172  -0.0021  -0.0052  -0.0099  -0.0051
  30 H   :1s    -0.0027   0.3121   0.0911   0.5377   0.3603  -0.4228  -0.9033
  31 H   :1s     0.0024  -0.1261  -0.0228  -0.1346  -0.0902   0.0669   0.1430
  32 H   :2px   -0.0002   0.0083   0.0087  -0.0011   0.0110   0.0200  -0.0003
  33 H   :2py    0.0007  -0.0230  -0.0020  -0.0174  -0.0054  -0.0023  -0.0278
  34 H   :2pz    0.0001  -0.0051   0.0101  -0.0003  -0.0092  -0.0159  -0.0008

    Orbital         8        9       10       11       12       13       14
   1 C   :1s    -0.0000  -0.4068   0.0000  -0.0000  -0.0000   0.0000   0.0000
   2 C   :1s    -0.0000  -2.5094   0.0000  -0.0000  -0.0000   0.0000   0.0000
   3 C   :1s     0.0000   1.5449  -0.0000  -0.0000   0.0000  -0.0000  -0.0000
   4 C   :2px   -0.8081  -0.0000   0.1939  -0.3789   0.2699   0.0000   0.0000
   5 C   :2py   -0.1650   0.0000  -0.1691  -0.3298  -0.3415  -0.0000  -0.0000
   6 C   :2pz   -1.1666   0.0000  -0.4334  -0.0408   0.2540   0.0000  -0.0000
   7 C   :2px    0.3728   0.0000  -0.3541   0.6921  -0.4930  -0.0000   0.0000
   8 C   :2py    0.0761  -0.0000   0.3090   0.6024   0.6238   0.0000   0.0000
   9 C   :2pz    0.5381  -0.0000   0.7916   0.0745  -0.4640  -0.0000   0.0000
  10 C   :3d2-  -0.0038  -0.0000   0.0962   0.1875   0.1942  -0.4476   0.4207
  11 C   :3d1-  -0.0270   0.0000   0.1934  -0.1357  -0.3294  -0.4287  -0.0695
  12 C   :3d0   -0.0402   0.0000   0.1819   0.3860  -0.0522   0.0602  -0.3713
  13 C   :3d1+  -0.0271   0.0000   0.2464   0.0232  -0.1445   0.4207   0.4476
  14 C   :3d2+   0.0143   0.0000   0.3255  -0.2081   0.2768   0.0348  -0.2144
  15 H   :1s     0.5662   0.6689   0.2391  -0.4672   0.3328   0.0000  -0.0000
  16 H   :1s    -0.0896  -0.2453  -0.2057   0.4021  -0.2864  -0.0000  -0.0000
  17 H   :2px    0.0161   0.0035  -0.0333   0.0651  -0.0464  -0.0000  -0.0000
  18 H   :2py   -0.0029  -0.0000   0.0325   0.0634   0.0657  -0.1112   0.1046
  19 H   :2pz   -0.0204   0.0000   0.0833   0.0078  -0.0489   0.1046   0.1112
  20 H   :1s     0.3056   0.6689  -0.3181   0.3799   0.3751   0.0000   0.0000
  21 H   :1s    -0.0484  -0.2453   0.2738  -0.3270  -0.3228  -0.0000   0.0000
  22 H   :2px   -0.0196  -0.0012  -0.0355   0.0708  -0.0540   0.1435   0.0107
  23 H   :2py   -0.0133  -0.0022   0.0359   0.0594   0.0617  -0.0260  -0.1148
  24 H   :2pz   -0.0091   0.0024   0.0797   0.0122  -0.0445   0.0450  -0.1001
  25 H   :1s    -0.9564   0.6690   0.4599   0.3162  -0.2734   0.0000  -0.0000
  26 H   :1s     0.1514  -0.2454  -0.3958  -0.2721   0.2353  -0.0000  -0.0000
  27 H   :2px    0.0029  -0.0012  -0.0398   0.0711  -0.0504  -0.0625  -0.1296
  28 H   :2py    0.0116  -0.0010   0.0304   0.0619   0.0670   0.1378  -0.0495
  29 H   :2pz    0.0255  -0.0031   0.0765   0.0031  -0.0448  -0.0202   0.0636
  30 H   :1s     0.0847   0.6689  -0.3809  -0.2288  -0.4345   0.0000   0.0000
  31 H   :1s    -0.0134  -0.2453   0.3278   0.1969   0.3739  -0.0000   0.0000
  32 H   :2px   -0.0157  -0.0012  -0.0352   0.0741  -0.0495  -0.0810   0.1190
  33 H   :2py    0.0013   0.0032   0.0267   0.0599   0.0591  -0.0006   0.0597
  34 H   :2pz   -0.0195   0.0007   0.0821   0.0071  -0.0503  -0.1294  -0.0748

    Orbital        15
   1 C   :1s    -0.2805
   2 C   :1s    -0.9318
   3 C   :1s     2.9314
  15 H   :1s    -1.4780
  16 H   :1s     0.7482
  17 H   :2px    0.1914
  20 H   :1s    -1.4780
  21 H   :1s     0.7482
  22 H   :2px   -0.0638
  23 H   :2py   -0.1220
  24 H   :2pz    0.1330
  25 H   :1s    -1.4780
  26 H   :1s     0.7482
  27 H   :2px   -0.0638
  28 H   :2py   -0.0542
  29 H   :2pz   -0.1721
  30 H   :1s    -1.4780
  31 H   :1s     0.7482
  32 H   :2px   -0.0638
  33 H   :2py    0.1761
  34 H   :2pz    0.0391

  Total CPU  time used in SIRIUS :   0.14 seconds
  Total wall time used in SIRIUS :   0.63 seconds

 
     Date and time (Linux)  : Tue Dec 14 17:35:53 2021
     Host name              : node659                                 


                     .---------------------------------------.
                     | End of Wave Function Section (SIRIUS) |
                     `---------------------------------------'

  Total CPU  time used in DALTON:   0.30 seconds
  Total wall time used in DALTON:   2.56 seconds

 
     Date and time (Linux)  : Tue Dec 14 17:35:53 2021
     Host name              : node659                                 
