Running on  hostname
Thu Sep 16 10:27:17 CEST 2021

                                 *****************
                                 * O   R   C   A *
                                 *****************

                                            #,                                       
                                            ###                                      
                                            ####                                     
                                            #####                                    
                                            ######                                   
                                           ########,                                 
                                     ,,################,,,,,                         
                               ,,#################################,,                 
                          ,,##########################################,,             
                       ,#########################################, ''#####,          
                    ,#############################################,,   '####,        
                  ,##################################################,,,,####,       
                ,###########''''           ''''###############################       
              ,#####''   ,,,,##########,,,,          '''####'''          '####       
            ,##' ,,,,###########################,,,                        '##       
           ' ,,###''''                  '''############,,,                           
         ,,##''                                '''############,,,,        ,,,,,,###''
      ,#''                                            '''#######################'''  
     '                                                          ''''####''''         
             ,#######,   #######,   ,#######,      ##                                
            ,#'     '#,  ##    ##  ,#'     '#,    #''#        ######   ,####,        
            ##       ##  ##   ,#'  ##            #'  '#       #        #'  '#        
            ##       ##  #######   ##           ,######,      #####,   #    #        
            '#,     ,#'  ##    ##  '#,     ,#' ,#      #,         ##   #,  ,#        
             '#######'   ##     ##  '#######'  #'      '#     #####' # '####'        



                  #######################################################
                  #                        -***-                        #
                  #          Department of theory and spectroscopy      #
                  #    Directorship and core code : Frank Neese         #
                  #        Max Planck Institute fuer Kohlenforschung    #
                  #                Kaiser Wilhelm Platz 1               #
                  #                 D-45470 Muelheim/Ruhr               #
                  #                      Germany                        #
                  #                                                     #
                  #                  All rights reserved                #
                  #                        -***-                        #
                  #######################################################


                         Program Version 5.0.1 -  RELEASE  -


 With contributions from (in alphabetic order):
   Daniel Aravena         : Magnetic Suceptibility
   Michael Atanasov       : Ab Initio Ligand Field Theory (pilot matlab implementation)
   Alexander A. Auer      : GIAO ZORA, VPT2 properties, NMR spectrum
   Ute Becker             : Parallelization
   Giovanni Bistoni       : ED, misc. LED, open-shell LED, HFLD
   Martin Brehm           : Molecular dynamics
   Dmytro Bykov           : SCF Hessian
   Vijay G. Chilkuri      : MRCI spin determinant printing, contributions to CSF-ICE
   Dipayan Datta          : RHF DLPNO-CCSD density
   Achintya Kumar Dutta   : EOM-CC, STEOM-CC
   Dmitry Ganyushin       : Spin-Orbit,Spin-Spin,Magnetic field MRCI
   Miquel Garcia          : C-PCM and meta-GGA Hessian, CC/C-PCM, Gaussian charge scheme
   Yang Guo               : DLPNO-NEVPT2, F12-NEVPT2, CIM, IAO-localization
   Andreas Hansen         : Spin unrestricted coupled pair/coupled cluster methods
   Benjamin Helmich-Paris : MC-RPA, TRAH-SCF, COSX integrals
   Lee Huntington         : MR-EOM, pCC
   Robert Izsak           : Overlap fitted RIJCOSX, COSX-SCS-MP3, EOM
   Marcus Kettner         : VPT2
   Christian Kollmar      : KDIIS, OOCD, Brueckner-CCSD(T), CCSD density, CASPT2, CASPT2-K
   Simone Kossmann        : Meta GGA functionals, TD-DFT gradient, OOMP2, MP2 Hessian
   Martin Krupicka        : Initial AUTO-CI
   Lucas Lang             : DCDCAS
   Marvin Lechner         : AUTO-CI (C++ implementation), FIC-MRCC
   Dagmar Lenk            : GEPOL surface, SMD
   Dimitrios Liakos       : Extrapolation schemes; Compound Job, initial MDCI parallelization
   Dimitrios Manganas     : Further ROCIS development; embedding schemes
   Dimitrios Pantazis     : SARC Basis sets
   Anastasios Papadopoulos: AUTO-CI, single reference methods and gradients
   Taras Petrenko         : DFT Hessian,TD-DFT gradient, ASA, ECA, R-Raman, ABS, FL, XAS/XES, NRVS
   Peter Pinski           : DLPNO-MP2, DLPNO-MP2 Gradient
   Christoph Reimann      : Effective Core Potentials
   Marius Retegan         : Local ZFS, SOC
   Christoph Riplinger    : Optimizer, TS searches, QM/MM, DLPNO-CCSD(T), (RO)-DLPNO pert. Triples
   Tobias Risthaus        : Range-separated hybrids, TD-DFT gradient, RPA, STAB
   Michael Roemelt        : Original ROCIS implementation
   Masaaki Saitow         : Open-shell DLPNO-CCSD energy and density
   Barbara Sandhoefer     : DKH picture change effects
   Avijit Sen             : IP-ROCIS
   Kantharuban Sivalingam : CASSCF convergence, NEVPT2, FIC-MRCI
   Bernardo de Souza      : ESD, SOC TD-DFT
   Georgi Stoychev        : AutoAux, RI-MP2 NMR, DLPNO-MP2 response
   Willem Van den Heuvel  : Paramagnetic NMR
   Boris Wezisla          : Elementary symmetry handling
   Frank Wennmohs         : Technical directorship


 We gratefully acknowledge several colleagues who have allowed us to
 interface, adapt or use parts of their codes:
   Stefan Grimme, W. Hujo, H. Kruse, P. Pracht,  : VdW corrections, initial TS optimization,
                  C. Bannwarth, S. Ehlert          DFT functionals, gCP, sTDA/sTD-DF
   Ed Valeev, F. Pavosevic, A. Kumar             : LibInt (2-el integral package), F12 methods
   Garnet Chan, S. Sharma, J. Yang, R. Olivares  : DMRG
   Ulf Ekstrom                                   : XCFun DFT Library
   Mihaly Kallay                                 : mrcc  (arbitrary order and MRCC methods)
   Jiri Pittner, Ondrej Demel                    : Mk-CCSD
   Frank Weinhold                                : gennbo (NPA and NBO analysis)
   Christopher J. Cramer and Donald G. Truhlar   : smd solvation model
   Lars Goerigk                                  : TD-DFT with DH, B97 family of functionals
   V. Asgeirsson, H. Jonsson                     : NEB implementation
   FAccTs GmbH                                   : IRC, NEB, NEB-TS, DLPNO-Multilevel, CI-OPT
                                                   MM, QMMM, 2- and 3-layer-ONIOM, Crystal-QMMM,
                                                   LR-CPCM, SF, NACMEs, symmetry and pop. for TD-DFT,
                                                   nearIR, NL-DFT gradient (VV10), updates on ESD,
                                                   ML-optimized integration grids
   S Lehtola, MJT Oliveira, MAL Marques          : LibXC Library
   Liviu Ungur et al                             : ANISO software


 Your calculation uses the libint2 library for the computation of 2-el integrals
 For citations please refer to: http://libint.valeyev.net

 Your ORCA version has been built with support for libXC version: 5.1.0
 For citations please refer to: https://tddft.org/programs/libxc/

 This ORCA versions uses:
   CBLAS   interface :  Fast vector & matrix operations
   LAPACKE interface :  Fast linear algebra routines
   SCALAPACK package :  Parallel linear algebra routines
   Shared memory     :  Shared parallel matrices
   BLAS/LAPACK       :  OpenBLAS 0.3.15  USE64BITINT DYNAMIC_ARCH NO_AFFINITY Zen SINGLE_THREADED
        Core in use  :  Zen
   Copyright (c) 2011-2014, The OpenBLAS Project


XCFun DFT library Copyright 2009-2010 Ulf Ekstrom and contributors.
See http://admol.org/xcfun for more information.
This is free software; see the source code for copying conditions.
There is ABSOLUTELY NO WARRANTY; not even for MERCHANTABILITY or FITNESS FOR A PARTICULAR PURPOSE.
For details see the documentation.
Scientific users of this library should cite U. Ekstrom, L. Visscher, R. Bast, A. J. Thorvaldsen and K. Ruud;
J.Chem.Theor.Comp. 2010, DOI: 10.1021/ct100117s
XCFun Version 0.99 

================================================================================

----- Orbital basis set information -----
Your calculation utilizes the basis: pc-2
   H, C-F              : F. Jensen, J. Chem. Phys. 115, 9113 (2001).
                         F. Jensen, J. Chem. Phys. 116, 7372 (2002).
                         F. Jensen, J. Chem. Phys. 117, 9234 (2002).
   Si-Cl               : F. Jensen, T. Helgaker, J. Chem. Phys. 121, 3463 (2004).
   He-B, Ne-Mg, Al, Ar : F. Jensen, J. Phys. Chem. A 111, 11198 (2007).
   K, Ca, Ga-Kr        : F. Jensen, J. Chem. Phys. 136, 094110 (2012).
   Sc-Zn               : F. Jensen, J. Chem. Phys. 138, 014107 (2013).

----- AuxJ basis set information -----
Your calculation utilizes the auxiliary basis: def2/J
   F. Weigend, Phys. Chem. Chem. Phys. 8, 1057 (2006).

================================================================================
                                        WARNINGS
                       Please study these warnings very carefully!
================================================================================


WARNING: Geometry Optimization
  ===> : Switching off AutoStart
         For restart on a previous wavefunction, please use MOREAD

WARNING: Minnesota functionals are quite sensitive to the integration grid.
         see SE Wheeler, KN Houk, JCTC 2010, 6, 395,
             N Mardirossian, M Head-Gordon, JCTC 2016, 12, 4303.
         DEFGRID3 seems to be a minimum grid for reliable results with these functionals!
  ===> : Please increase the integration grid!


INFO   : the flag for use of the SHARK integral package has been found!

================================================================================
                                       INPUT FILE
================================================================================
NAME = NBD_pc-2.inp
|  1> ! PAL4
|  2> ! RKS pc-2 M062X VeryTightSCF TightOPT
|  3> ! Opt Freq
|  4> %method
|  5> end
|  6> %maxcore 2400
|  7> * xyz 0 1
|  8> C  1.203070  -0.785160  0.489290
|  9> C  1.236190  0.558590  0.588830
| 10> C  -0.015470  1.075650  -0.091650
| 11> C  -1.237180  0.617530  0.727680
| 12> C  -1.290660  -0.740730  0.574980
| 13> C  -0.072670  -1.146160  -0.259440
| 14> C  -2.096230  1.595690  1.435230
| 15> C  -2.996010  1.216710  2.434090
| 16> C  -3.944490  2.112680  2.949610
| 17> C  -3.967720  3.452570  2.553690
| 18> C  -2.982070  3.875020  1.666680
| 19> C  -2.059850  2.962270  1.122650
| 20> S  -5.332110  4.431980  3.140930
| 21> C  -4.858420  6.120600  3.090190
| 22> O  -3.732470  6.515770  2.814250
| 23> C  -5.972540  7.075630  3.432890
| 24> C  -2.229380  -1.774920  1.037920
| 25> C  -1.777070  -3.038310  1.437660
| 26> C  -2.663700  -3.984770  1.976260
| 27> C  -4.023350  -3.691020  2.137890
| 28> C  -4.490230  -2.474270  1.644170
| 29> C  -3.607920  -1.545610  1.074270
| 30> S  -5.067280  -4.931570  2.876700
| 31> C  -6.379800  -4.063670  3.671530
| 32> O  -6.348550  -2.869860  3.938750
| 33> C  -7.569320  -4.928290  4.005890
| 34> C  -0.091930  0.043420  -1.223620
| 35> H  1.915110  -1.480890  0.907790
| 36> H  1.969510  1.160410  1.102840
| 37> H  0.032690  2.092540  -0.475380
| 38> H  -0.082210  -2.112150  -0.764880
| 39> H  -3.011280  0.201950  2.819920
| 40> H  -4.686450  1.728650  3.648050
| 41> H  -2.915580  4.908590  1.340550
| 42> H  -1.336400  3.365630  0.421840
| 43> H  -6.899820  6.562000  3.702820
| 44> H  -6.173500  7.720120  2.572770
| 45> H  -5.661210  7.686180  4.285070
| 46> H  -0.724840  -3.302890  1.363410
| 47> H  -2.268590  -4.951310  2.283860
| 48> H  -5.541020  -2.205940  1.707200
| 49> H  -4.020040  -0.612690  0.695410
| 50> H  -7.386310  -5.988220  3.807040
| 51> H  -8.427240  -4.606030  3.408860
| 52> H  -7.801880  -4.818020  5.068900
| 53> H  0.768930  0.076930  -1.905250
| 54> H  -1.012080  0.113270  -1.822530
| 55> *
| 56> 
| 57> 
| 58>                          ****END OF INPUT****
================================================================================

                       *****************************
                       * Geometry Optimization Run *
                       *****************************

Geometry optimization settings:
Update method            Update   .... BFGS
Choice of coordinates    CoordSys .... Z-matrix Internals
Initial Hessian          InHess   .... Almoef's Model

Convergence Tolerances:
Energy Change            TolE     ....  1.0000e-06 Eh
Max. Gradient            TolMAXG  ....  1.0000e-04 Eh/bohr
RMS Gradient             TolRMSG  ....  3.0000e-05 Eh/bohr
Max. Displacement        TolMAXD  ....  1.0000e-03 bohr
RMS Displacement         TolRMSD  ....  6.0000e-04 bohr
Strict Convergence                ....  False
------------------------------------------------------------------------------
                        ORCA OPTIMIZATION COORDINATE SETUP
------------------------------------------------------------------------------

The optimization will be done in new redundant internal coordinates
Making redundant internal coordinates   ...  (new redundants) done
Evaluating the initial hessian          ...  (Almloef) done
Evaluating the coordinates              ...  done
Calculating the B-matrix                .... done
Calculating the G-matrix                .... done
Diagonalizing the G-matrix              .... done
Small eigenvalue found = 1.128e-03
Small eigenvalue found = 6.776e-03
Small eigenvalue found = 7.619e-03
Small eigenvalue found = 1.014e-02
Small eigenvalue found = 1.969e-02
Small eigenvalue found = 2.473e-02
The first mode is                       ....  128
The number of degrees of freedom        ....  135

    -----------------------------------------------------------------
                    Redundant Internal Coordinates


    -----------------------------------------------------------------
         Definition                    Initial Value    Approx d2E/dq
    -----------------------------------------------------------------
      1. B(C   1,C   0)                  1.3478         0.729465   
      2. B(C   2,C   1)                  1.5156         0.393863   
      3. B(C   3,C   2)                  1.5407         0.359178   
      4. B(C   4,C   3)                  1.3679         0.677731   
      5. B(C   5,C   4)                  1.5311         0.372129   
      6. B(C   5,C   0)                  1.5226         0.383814   
      7. B(C   6,C   3)                  1.4817         0.446129   
      8. B(C   7,C   6)                  1.3968         0.609461   
      9. B(C   8,C   7)                  1.4029         0.595871   
     10. B(C   9,C   8)                  1.3974         0.608144   
     11. B(C  10,C   9)                  1.3917         0.620966   
     12. B(C  11,C  10)                  1.4070         0.587030   
     13. B(C  11,C   6)                  1.4023         0.597095   
     14. B(S  12,C   9)                  1.7792         0.403196   
     15. B(C  13,S  12)                  1.7545         0.441482   
     16. B(O  14,C  13)                  1.2248         1.026802   
     17. B(C  15,C  13)                  1.5069         0.406640   
     18. B(C  16,C   4)                  1.4714         0.463285   
     19. B(C  17,C  16)                  1.4002         0.601841   
     20. B(C  18,C  17)                  1.4043         0.592875   
     21. B(C  19,C  18)                  1.4004         0.601422   
     22. B(C  20,C  19)                  1.3936         0.616510   
     23. B(C  21,C  20)                  1.4020         0.597803   
     24. B(C  21,C  16)                  1.3980         0.606803   
     25. B(S  22,C  19)                  1.7817         0.399495   
     26. B(C  23,S  22)                  1.7629         0.428168   
     27. B(O  24,C  23)                  1.2238         1.030661   
     28. B(C  25,C  23)                  1.5081         0.404893   
     29. B(C  26,C   5)                  1.5314         0.371690   
     30. B(C  26,C   2)                  1.5339         0.368326   
     31. B(H  27,C   0)                  1.0799         0.373712   
     32. B(H  28,C   1)                  1.0790         0.375007   
     33. B(H  29,C   2)                  1.0879         0.362823   
     34. B(H  30,C   5)                  1.0903         0.359738   
     35. B(H  31,O  24)                  4.6717         0.000001   
     36. B(H  31,C   7)                  1.0857         0.365777   
     37. B(H  32,C   8)                  1.0889         0.361498   
     38. B(H  33,C  10)                  1.0858         0.365645   
     39. B(H  34,C  11)                  1.0850         0.366782   
     40. B(H  35,C  15)                  1.0939         0.355032   
     41. B(H  36,C  15)                  1.0934         0.355609   
     42. B(H  37,C  15)                  1.0936         0.355400   
     43. B(H  38,C  17)                  1.0875         0.363393   
     44. B(H  39,C  18)                  1.0885         0.362031   
     45. B(H  40,C  20)                  1.0863         0.364975   
     46. B(H  41,C  21)                  1.0880         0.362772   
     47. B(H  42,C  25)                  1.0938         0.355056   
     48. B(H  43,C  25)                  1.0938         0.355153   
     49. B(H  44,C  25)                  1.0937         0.355206   
     50. B(H  45,C  26)                  1.0986         0.348959   
     51. B(H  46,C  26)                  1.1001         0.346967   
     52. A(C   1,C   0,C   5)          107.0540         0.410177   
     53. A(C   5,C   0,H  27)          126.1754         0.327760   
     54. A(C   1,C   0,H  27)          126.6895         0.365111   
     55. A(C   0,C   1,C   2)          106.6588         0.412062   
     56. A(C   0,C   1,H  28)          127.4429         0.365327   
     57. A(C   2,C   1,H  28)          125.7956         0.329349   
     58. A(C  26,C   2,H  29)          111.7724         0.323967   
     59. A(C   3,C   2,C  26)           98.7908         0.360052   
     60. A(C   1,C   2,C   3)          108.3401         0.364196   
     61. A(C   1,C   2,H  29)          116.1471         0.327559   
     62. A(C   1,C   2,C  26)           98.2172         0.365767   
     63. A(C   3,C   2,H  29)          120.0393         0.322633   
     64. A(C   4,C   3,C   6)          133.3280         0.415816   
     65. A(C   2,C   3,C   6)          121.1573         0.372068   
     66. A(C   2,C   3,C   4)          105.4796         0.400167   
     67. A(C   5,C   4,C  16)          119.5294         0.376794   
     68. A(C   3,C   4,C  16)          133.4516         0.418619   
     69. A(C   3,C   4,C   5)          107.0186         0.402672   
     70. A(C   0,C   5,C   4)          109.6184         0.364794   
     71. A(C   0,C   5,H  30)          116.4461         0.325710   
     72. A(C   4,C   5,C  26)           97.3213         0.362797   
     73. A(C   0,C   5,C  26)           97.8146         0.364720   
     74. A(C  26,C   5,H  30)          113.3446         0.323996   
     75. A(C   4,C   5,H  30)          118.7058         0.324059   
     76. A(C   7,C   6,C  11)          116.1370         0.429813   
     77. A(C   3,C   6,C  11)          121.4564         0.406579   
     78. A(C   3,C   6,C   7)          122.4022         0.408056   
     79. A(C   8,C   7,H  31)          117.1814         0.351476   
     80. A(C   6,C   7,H  31)          121.1162         0.352819   
     81. A(C   6,C   7,C   8)          121.6700         0.429655   
     82. A(C   7,C   8,H  32)          118.1067         0.350778   
     83. A(C   9,C   8,H  32)          120.5681         0.351989   
     84. A(C   7,C   8,C   9)          121.2996         0.429488   
     85. A(C   8,C   9,C  10)          117.3798         0.432682   
     86. A(C  10,C   9,S  12)          125.9008         0.424139   
     87. A(C   8,C   9,S  12)          116.5555         0.422560   
     88. A(C  11,C  10,H  33)          117.4667         0.350568   
     89. A(C   9,C  10,H  33)          121.5837         0.353917   
     90. A(C   9,C  10,C  11)          120.9142         0.429945   
     91. A(C   6,C  11,H  34)          121.5707         0.351761   
     92. A(C  10,C  11,H  34)          116.4634         0.350752   
     93. A(C   6,C  11,C  10)          121.9377         0.426933   
     94. A(C   9,S  12,C  13)          108.2528         0.421015   
     95. A(O  14,C  13,C  15)          121.7652         0.437692   
     96. A(S  12,C  13,C  15)          113.8142         0.399833   
     97. A(S  12,C  13,O  14)          124.4189         0.469180   
     98. A(C  13,C  15,H  35)          112.6610         0.328111   
     99. A(C  13,C  15,H  36)          109.3020         0.328199   
    100. A(H  36,C  15,H  37)          109.6477         0.289669   
    101. A(H  35,C  15,H  37)          108.1313         0.289596   
    102. A(C  13,C  15,H  37)          108.6975         0.328167   
    103. A(H  35,C  15,H  36)          108.3660         0.289622   
    104. A(C  17,C  16,C  21)          117.3311         0.430087   
    105. A(C   4,C  16,C  21)          121.4666         0.410474   
    106. A(C   4,C  16,C  17)          121.1928         0.409877   
    107. A(C  16,C  17,C  18)          120.9090         0.428299   
    108. A(C  18,C  17,H  38)          118.2360         0.350789   
    109. A(C  16,C  17,H  38)          120.8357         0.351680   
    110. A(C  17,C  18,C  19)          121.0580         0.428246   
    111. A(C  19,C  18,H  39)          120.4013         0.351415   
    112. A(C  17,C  18,H  39)          118.5322         0.350567   
    113. A(C  18,C  19,C  20)          117.8732         0.431261   
    114. A(C  20,C  19,S  22)          123.9523         0.422895   
    115. A(C  18,C  19,S  22)          118.0780         0.421028   
    116. A(C  19,C  20,C  21)          120.7625         0.430793   
    117. A(C  19,C  20,H  40)          121.2749         0.353375   
    118. A(C  21,C  20,H  40)          117.9496         0.351538   
    119. A(C  20,C  21,H  41)          118.1079         0.351178   
    120. A(C  16,C  21,H  41)          120.3399         0.352067   
    121. A(C  16,C  21,C  20)          121.4995         0.429568   
    122. A(C  19,S  22,C  23)          106.2842         0.418035   
    123. A(O  24,C  23,C  25)          122.0747         0.437649   
    124. A(S  22,C  23,C  25)          113.8889         0.397386   
    125. A(S  22,C  23,O  24)          124.0362         0.466875   
    126. A(H  43,C  25,H  44)          109.5137         0.289586   
    127. A(H  42,C  25,H  44)          108.0566         0.289574   
    128. A(C  23,C  25,H  44)          108.9897         0.327905   
    129. A(H  42,C  25,H  43)          108.5120         0.289567   
    130. A(C  23,C  25,H  43)          109.1924         0.327897   
    131. A(C  23,C  25,H  42)          112.5368         0.327882   
    132. A(H  45,C  26,H  46)          108.4036         0.287731   
    133. A(C   2,C  26,C   5)           93.2954         0.362161   
    134. A(C   5,C  26,H  46)          113.7414         0.322081   
    135. A(C   2,C  26,H  46)          113.6240         0.321602   
    136. A(C   5,C  26,H  45)          113.8600         0.322384   
    137. A(C   2,C  26,H  45)          113.4731         0.321904   
    138. D(C   2,C   1,C   0,H  27)   -176.8096         0.037750   
    139. D(C   2,C   1,C   0,C   5)      0.0622         0.037750   
    140. D(H  28,C   1,C   0,H  27)     -0.3532         0.037750   
    141. D(H  28,C   1,C   0,C   5)    176.5186         0.037750   
    142. D(H  29,C   2,C   1,C   0)   -155.1811         0.011529   
    143. D(C  26,C   2,C   1,C   0)    -35.9466         0.011529   
    144. D(C   3,C   2,C   1,H  28)   -110.3237         0.011529   
    145. D(H  29,C   2,C   1,H  28)     28.2875         0.011529   
    146. D(C   3,C   2,C   1,C   0)     66.2077         0.011529   
    147. D(C  26,C   2,C   1,H  28)    147.5220         0.011529   
    148. D(C   6,C   3,C   2,C  26)   -144.5253         0.009705   
    149. D(C   4,C   3,C   2,C  26)     33.5906         0.009705   
    150. D(C   6,C   3,C   2,C   1)    113.7256         0.009705   
    151. D(C   4,C   3,C   2,C   1)    -68.1585         0.009705   
    152. D(C   4,C   3,C   2,H  29)    155.1237         0.009705   
    153. D(C   6,C   3,C   2,H  29)    -22.9922         0.009705   
    154. D(C  16,C   4,C   3,C   6)      0.8279         0.032180   
    155. D(C  16,C   4,C   3,C   2)   -176.9555         0.032180   
    156. D(C   5,C   4,C   3,C   2)      3.2750         0.032180   
    157. D(C   5,C   4,C   3,C   6)   -178.9416         0.032180   
    158. D(C  26,C   5,C   4,C  16)    141.2705         0.010362   
    159. D(C   0,C   5,C   4,C  16)   -117.6990         0.010362   
    160. D(C  26,C   5,C   4,C   3)    -38.9218         0.010362   
    161. D(H  30,C   5,C   0,H  27)    -26.2403         0.010979   
    162. D(C  26,C   5,C   0,H  27)   -147.2369         0.010979   
    163. D(C   0,C   5,C   4,C   3)     62.1087         0.010362   
    164. D(C  26,C   5,C   0,C   1)     35.8706         0.010979   
    165. D(C   4,C   5,C   0,H  27)    112.0743         0.010979   
    166. D(H  30,C   5,C   0,C   1)    156.8672         0.010979   
    167. D(H  30,C   5,C   4,C   3)   -160.6477         0.010362   
    168. D(C   4,C   5,C   0,C   1)    -64.8182         0.010979   
    169. D(H  30,C   5,C   4,C  16)     19.5446         0.010362   
    170. D(C  11,C   6,C   3,C   4)   -160.7137         0.013572   
    171. D(C   7,C   6,C   3,C   4)     18.4922         0.013572   
    172. D(C  11,C   6,C   3,C   2)     16.7899         0.013572   
    173. D(C   7,C   6,C   3,C   2)   -164.0043         0.013572   
    174. D(H  31,C   7,C   6,C  11)   -172.9173         0.025651   
    175. D(H  31,C   7,C   6,C   3)      7.8373         0.025651   
    176. D(C   8,C   7,C   6,C  11)      9.2119         0.025651   
    177. D(C   8,C   7,C   6,C   3)   -170.0335         0.025651   
    178. D(H  32,C   8,C   7,H  31)     -4.4223         0.024459   
    179. D(H  32,C   8,C   7,C   6)    173.5286         0.024459   
    180. D(C   9,C   8,C   7,H  31)    177.4094         0.024459   
    181. D(C   9,C   8,C   7,C   6)     -4.6397         0.024459   
    182. D(S  12,C   9,C   8,H  32)     -4.8626         0.025534   
    183. D(S  12,C   9,C   8,C   7)    173.2609         0.025534   
    184. D(C  10,C   9,C   8,H  32)    179.5130         0.025534   
    185. D(C  10,C   9,C   8,C   7)     -2.3635         0.025534   
    186. D(H  33,C  10,C   9,S  12)      6.9364         0.026687   
    187. D(H  33,C  10,C   9,C   8)   -177.8965         0.026687   
    188. D(C  11,C  10,C   9,S  12)   -170.8472         0.026687   
    189. D(C  11,C  10,C   9,C   8)      4.3199         0.026687   
    190. D(H  34,C  11,C  10,H  33)      0.7982         0.023703   
    191. D(C   6,C  11,C  10,H  33)   -177.3013         0.023703   
    192. D(C   6,C  11,C  10,C   9)      0.5709         0.023703   
    193. D(H  34,C  11,C   6,C   7)    174.7569         0.024565   
    194. D(H  34,C  11,C   6,C   3)     -5.9900         0.024565   
    195. D(H  34,C  11,C  10,C   9)    178.6703         0.023703   
    196. D(C  10,C  11,C   6,C   7)     -7.2402         0.024565   
    197. D(C  10,C  11,C   6,C   3)    172.0129         0.024565   
    198. D(C  13,S  12,C   9,C   8)    157.8022         0.003864   
    199. D(C  13,S  12,C   9,C  10)    -26.9954         0.003864   
    200. D(O  14,C  13,S  12,C   9)     -6.2510         0.004356   
    201. D(C  15,C  13,S  12,C   9)    174.2265         0.004356   
    202. D(H  37,C  15,C  13,O  14)    -57.3024         0.012255   
    203. D(H  37,C  15,C  13,S  12)    122.2344         0.012255   
    204. D(H  36,C  15,C  13,O  14)     62.3437         0.012255   
    205. D(H  36,C  15,C  13,S  12)   -118.1195         0.012255   
    206. D(H  35,C  15,C  13,O  14)   -177.1251         0.012255   
    207. D(H  35,C  15,C  13,S  12)      2.4117         0.012255   
    208. D(C  21,C  16,C   4,C   5)   -141.9977         0.014619   
    209. D(C  21,C  16,C   4,C   3)     38.2556         0.014619   
    210. D(C  17,C  16,C   4,C   5)     36.8517         0.014619   
    211. D(C  17,C  16,C   4,C   3)   -142.8950         0.014619   
    212. D(H  38,C  17,C  16,C  21)    175.5145         0.024978   
    213. D(H  38,C  17,C  16,C   4)     -3.3808         0.024978   
    214. D(C  18,C  17,C  16,C  21)     -6.1121         0.024978   
    215. D(C  18,C  17,C  16,C   4)    174.9925         0.024978   
    216. D(H  39,C  18,C  17,H  38)     -0.9607         0.024201   
    217. D(H  39,C  18,C  17,C  16)   -179.3753         0.024201   
    218. D(C  19,C  18,C  17,H  38)    177.9862         0.024201   
    219. D(C  19,C  18,C  17,C  16)     -0.4285         0.024201   
    220. D(S  22,C  19,C  18,H  39)      0.8232         0.024942   
    221. D(S  22,C  19,C  18,C  17)   -178.1041         0.024942   
    222. D(C  20,C  19,C  18,H  39)   -175.7491         0.024942   
    223. D(C  20,C  19,C  18,C  17)      5.3237         0.024942   
    224. D(H  40,C  20,C  19,S  22)      1.3906         0.026283   
    225. D(H  40,C  20,C  19,C  18)    177.7444         0.026283   
    226. D(C  21,C  20,C  19,S  22)   -179.9480         0.026283   
    227. D(C  21,C  20,C  19,C  18)     -3.5943         0.026283   
    228. D(H  41,C  21,C  20,H  40)     -1.7641         0.024626   
    229. D(H  41,C  21,C  20,C  19)    179.5311         0.024626   
    230. D(C  16,C  21,C  20,H  40)    175.6065         0.024626   
    231. D(C  16,C  21,C  20,C  19)     -3.0984         0.024626   
    232. D(H  41,C  21,C  16,C  17)   -174.8060         0.025415   
    233. D(H  41,C  21,C  16,C   4)      4.0860         0.025415   
    234. D(C  20,C  21,C  16,C  17)      7.8813         0.025415   
    235. D(C  20,C  21,C  16,C   4)   -173.2266         0.025415   
    236. D(C  23,S  22,C  19,C  20)    -31.8777         0.003819   
    237. D(C  23,S  22,C  19,C  18)    151.7754         0.003819   
    238. D(C  25,C  23,S  22,C  19)    163.0893         0.004179   
    239. D(O  24,C  23,S  22,C  19)    -17.0239         0.004179   
    240. D(H  44,C  25,C  23,O  24)    -53.3797         0.012154   
    241. D(H  44,C  25,C  23,S  22)    126.5096         0.012154   
    242. D(H  43,C  25,C  23,O  24)     66.2132         0.012154   
    243. D(H  43,C  25,C  23,S  22)   -113.8975         0.012154   
    244. D(H  42,C  25,C  23,O  24)   -173.2276         0.012154   
    245. D(H  42,C  25,C  23,S  22)      6.6618         0.012154   
    246. D(H  46,C  26,C   5,H  30)     64.4120         0.011038   
    247. D(H  46,C  26,C   5,C   4)    -61.2420         0.011038   
    248. D(H  46,C  26,C   5,C   0)   -172.3004         0.011038   
    249. D(H  45,C  26,C   5,C   4)    173.8915         0.011038   
    250. D(H  45,C  26,C   5,C   0)     62.8331         0.011038   
    251. D(C   2,C  26,C   5,H  30)   -177.9534         0.011038   
    252. D(C   2,C  26,C   5,C   4)     56.3927         0.011038   
    253. D(C   2,C  26,C   5,C   0)    -54.6657         0.011038   
    254. D(H  46,C  26,C   2,H  29)    -64.7471         0.010851   
    255. D(H  46,C  26,C   2,C   3)     62.6418         0.010851   
    256. D(H  46,C  26,C   2,C   1)    172.7645         0.010851   
    257. D(H  45,C  26,C   2,H  29)     59.6977         0.010851   
    258. D(H  45,C  26,C   2,C   3)   -172.9134         0.010851   
    259. D(H  45,C  26,C   5,H  30)    -60.4546         0.011038   
    260. D(H  45,C  26,C   2,C   1)    -62.7907         0.010851   
    261. D(C   5,C  26,C   2,H  29)    177.5201         0.010851   
    262. D(C   5,C  26,C   2,C   3)    -55.0911         0.010851   
    263. D(C   5,C  26,C   2,C   1)     55.0316         0.010851   
    -----------------------------------------------------------------

Number of atoms                         .... 47
Number of degrees of freedom            .... 263

         *************************************************************
         *                GEOMETRY OPTIMIZATION CYCLE   1            *
         *************************************************************
---------------------------------
CARTESIAN COORDINATES (ANGSTROEM)
---------------------------------
  C      1.203070   -0.785160    0.489290
  C      1.236190    0.558590    0.588830
  C     -0.015470    1.075650   -0.091650
  C     -1.237180    0.617530    0.727680
  C     -1.290660   -0.740730    0.574980
  C     -0.072670   -1.146160   -0.259440
  C     -2.096230    1.595690    1.435230
  C     -2.996010    1.216710    2.434090
  C     -3.944490    2.112680    2.949610
  C     -3.967720    3.452570    2.553690
  C     -2.982070    3.875020    1.666680
  C     -2.059850    2.962270    1.122650
  S     -5.332110    4.431980    3.140930
  C     -4.858420    6.120600    3.090190
  O     -3.732470    6.515770    2.814250
  C     -5.972540    7.075630    3.432890
  C     -2.229380   -1.774920    1.037920
  C     -1.777070   -3.038310    1.437660
  C     -2.663700   -3.984770    1.976260
  C     -4.023350   -3.691020    2.137890
  C     -4.490230   -2.474270    1.644170
  C     -3.607920   -1.545610    1.074270
  S     -5.067280   -4.931570    2.876700
  C     -6.379800   -4.063670    3.671530
  O     -6.348550   -2.869860    3.938750
  C     -7.569320   -4.928290    4.005890
  C     -0.091930    0.043420   -1.223620
  H      1.915110   -1.480890    0.907790
  H      1.969510    1.160410    1.102840
  H      0.032690    2.092540   -0.475380
  H     -0.082210   -2.112150   -0.764880
  H     -3.011280    0.201950    2.819920
  H     -4.686450    1.728650    3.648050
  H     -2.915580    4.908590    1.340550
  H     -1.336400    3.365630    0.421840
  H     -6.899820    6.562000    3.702820
  H     -6.173500    7.720120    2.572770
  H     -5.661210    7.686180    4.285070
  H     -0.724840   -3.302890    1.363410
  H     -2.268590   -4.951310    2.283860
  H     -5.541020   -2.205940    1.707200
  H     -4.020040   -0.612690    0.695410
  H     -7.386310   -5.988220    3.807040
  H     -8.427240   -4.606030    3.408860
  H     -7.801880   -4.818020    5.068900
  H      0.768930    0.076930   -1.905250
  H     -1.012080    0.113270   -1.822530

----------------------------
CARTESIAN COORDINATES (A.U.)
----------------------------
  NO LB      ZA    FRAG     MASS         X           Y           Z
   0 C     6.0000    0    12.011    2.273473   -1.483737    0.924624
   1 C     6.0000    0    12.011    2.336061    1.055582    1.112727
   2 C     6.0000    0    12.011   -0.029234    2.032684   -0.173193
   3 C     6.0000    0    12.011   -2.337931    1.166963    1.375116
   4 C     6.0000    0    12.011   -2.438994   -1.399777    1.086555
   5 C     6.0000    0    12.011   -0.137326   -2.165929   -0.490271
   6 C     6.0000    0    12.011   -3.961301    3.015417    2.712192
   7 C     6.0000    0    12.011   -5.661638    2.299249    4.599763
   8 C     6.0000    0    12.011   -7.454006    3.992387    5.573955
   9 C     6.0000    0    12.011   -7.497904    6.524412    4.825775
  10 C     6.0000    0    12.011   -5.635296    7.322727    3.149569
  11 C     6.0000    0    12.011   -3.892552    5.597879    2.121501
  12 S    16.0000    0    32.060  -10.076228    8.375228    5.935498
  13 C     6.0000    0    12.011   -9.181083   11.566258    5.839613
  14 O     8.0000    0    15.999   -7.053346   12.313021    5.318162
  15 C     6.0000    0    12.011  -11.286465   13.371003    6.487222
  16 C     6.0000    0    12.011   -4.212918   -3.354113    1.961385
  17 C     6.0000    0    12.011   -3.358176   -5.741574    2.716784
  18 C     6.0000    0    12.011   -5.033664   -7.530124    3.734590
  19 C     6.0000    0    12.011   -7.603030   -6.975017    4.040027
  20 C     6.0000    0    12.011   -8.485305   -4.675693    3.107031
  21 C     6.0000    0    12.011   -6.817981   -2.920780    2.030076
  22 S    16.0000    0    32.060   -9.575771   -9.319317    5.436175
  23 C     6.0000    0    12.011  -12.056075   -7.679223    6.938186
  24 O     8.0000    0    15.999  -11.997021   -5.423249    7.443159
  25 C     6.0000    0    12.011  -14.303942   -9.313118    7.570035
  26 C     6.0000    0    12.011   -0.173723    0.082052   -2.312307
  27 H     1.0000    0     1.008    3.619033   -2.798477    1.715474
  28 H     1.0000    0     1.008    3.721835    2.192857    2.084066
  29 H     1.0000    0     1.008    0.061775    3.954328   -0.898338
  30 H     1.0000    0     1.008   -0.155354   -3.991385   -1.445414
  31 H     1.0000    0     1.008   -5.690495    0.381630    5.328877
  32 H     1.0000    0     1.008   -8.856107    3.266675    6.893815
  33 H     1.0000    0     1.008   -5.509648    9.275891    2.533272
  34 H     1.0000    0     1.008   -2.525430    6.360119    0.797162
  35 H     1.0000    0     1.008  -13.038770   12.400383    6.997316
  36 H     1.0000    0     1.008  -11.666224   14.588913    4.861831
  37 H     1.0000    0     1.008  -10.698136   14.524775    8.097609
  38 H     1.0000    0     1.008   -1.369749   -6.241558    2.576472
  39 H     1.0000    0     1.008   -4.287014   -9.356620    4.315870
  40 H     1.0000    0     1.008  -10.471010   -4.168622    3.226140
  41 H     1.0000    0     1.008   -7.596775   -1.157816    1.314134
  42 H     1.0000    0     1.008  -13.958103  -11.316096    7.194263
  43 H     1.0000    0     1.008  -15.925176   -8.704135    6.441812
  44 H     1.0000    0     1.008  -14.743417   -9.104738    9.578833
  45 H     1.0000    0     1.008    1.453067    0.145377   -3.600401
  46 H     1.0000    0     1.008   -1.912554    0.214049   -3.444083

--------------------------------
INTERNAL COORDINATES (ANGSTROEM)
--------------------------------
 C      0   0   0     0.000000000000     0.00000000     0.00000000
 C      1   0   0     1.347838717540     0.00000000     0.00000000
 C      2   1   0     1.515604443646   106.65877766     0.00000000
 C      3   2   1     1.540698188290   108.34011431    66.20772167
 C      4   3   2     1.367862430217   105.47958584   291.84151031
 C      1   2   3     1.522639208907   107.05397427     0.06221167
 C      4   3   2     1.481685152318   121.15731185   113.72561566
 C      7   4   3     1.396764542935   122.40222287   195.99571332
 C      8   7   4     1.402903211808   121.66996317   189.96654418
 C      9   8   7     1.397353745978   121.29963725   355.36028101
 C     10   9   8     1.391674051314   117.37983565   357.63646351
 C      7   4   3     1.402344699851   121.45637472    16.78986308
 S     10   9   8     1.779228719923   116.55548259   173.26090106
 C     13  10   9     1.754535342505   108.25284563   157.80216157
 O     14  13  10     1.224771658310   124.41887054   353.74904915
 C     14  13  10     1.506913721916   113.81420639   174.22645001
 C      5   4   3     1.471413483050   133.45157175   183.04450245
 C     17   5   4     1.400189521386   121.19282609   217.10499815
 C     18  17   5     1.404275346398   120.90900404   174.99254229
 C     19  18  17     1.400379035083   121.05801430   359.57152754
 C     20  19  18     1.393634433881   117.87323585     5.32365260
 C     17   5   4     1.397954552266   121.46659872    38.25557312
 S     20  19  18     1.781739140138   118.07801077   181.89592259
 C     23  20  19     1.762870922473   106.28416124   151.77542449
 O     24  23  20     1.223750549336   124.03624328   342.97612771
 C     24  23  20     1.508085602478   113.88894794   163.08930047
 C      6   1   2     1.531376699705    97.81463871    35.87056369
 H      1   2   3     1.079899738170   126.68945471   183.19037037
 H      2   1   3     1.078958671544   127.44286034   176.45642600
 H      3   2   1     1.087949158095   116.14713191   204.81894350
 H      6   1   2     1.090273949657   116.44605140   156.86719870
 H      8   7   4     1.085742059331   121.11620816     7.83731799
 H      9   8   7     1.088945414656   118.10666916   173.52856810
 H     11  10   9     1.085840062762   121.58372690   182.10354200
 H     12   7   4     1.084994860909   121.57074401   354.00999517
 H     16  14  13     1.093858391292   112.66104022     2.41168347
 H     16  14  13     1.093416067241   109.30200973   241.88050360
 H     16  14  13     1.093575979893   108.69745344   122.23438996
 H     18  17   5     1.087521775322   120.83569793   356.61919126
 H     19  18  17     1.088544552924   118.53223945   180.62467109
 H     21  20  19     1.086339446904   121.27489049   177.74438757
 H     22  17   5     1.087987830998   120.33993644     4.08604213
 H     26  24  23     1.093839836311   112.53680918     6.66176721
 H     26  24  23     1.093765539272   109.19244835   246.10248505
 H     26  24  23     1.093724776441   108.98967962   126.50962495
 H     27   6   1     1.098554648891   113.86001898    62.83308096
 H     27   6   1     1.100112827441   113.74142168   187.69962176

---------------------------
INTERNAL COORDINATES (A.U.)
---------------------------
 C      0   0   0     0.000000000000     0.00000000     0.00000000
 C      1   0   0     2.547046048846     0.00000000     0.00000000
 C      2   1   0     2.864077325845   106.65877766     0.00000000
 C      3   2   1     2.911497630897   108.34011431    66.20772167
 C      4   3   2     2.584885381991   105.47958584   291.84151031
 C      1   2   3     2.877371105604   107.05397427     0.06221167
 C      4   3   2     2.799979154579   121.15731185   113.72561566
 C      7   4   3     2.639502459719   122.40222287   195.99571332
 C      8   7   4     2.651102862715   121.66996317   189.96654418
 C      9   8   7     2.640615892108   121.29963725   355.36028101
 C     10   9   8     2.629882824668   117.37983565   357.63646351
 C      7   4   3     2.650047428074   121.45637472    16.78986308
 S     10   9   8     3.362255010262   116.55548259   173.26090106
 C     13  10   9     3.315591289621   108.25284563   157.80216157
 O     14  13  10     2.314483010795   124.41887054   353.74904915
 C     14  13  10     2.847654241870   113.81420639   174.22645001
 C      5   4   3     2.780568512723   133.45157175   183.04450245
 C     17   5   4     2.645974731006   121.19282609   217.10499815
 C     18  17   5     2.653695821309   120.90900404   174.99254229
 C     19  18  17     2.646332859992   121.05801430   359.57152754
 C     20  19  18     2.633587410838   117.87323585     5.32365260
 C     17   5   4     2.641751251450   121.46659872    38.25557312
 S     20  19  18     3.366999016949   118.07801077   181.89592259
 C     23  20  19     3.331343252927   106.28416124   151.77542449
 O     24  23  20     2.312553394481   124.03624328   342.97612771
 C     24  23  20     2.849868775192   113.88894794   163.08930047
 C      6   1   2     2.893882570311    97.81463871    35.87056369
 H      1   2   3     2.040714757235   126.68945471   183.19037037
 H      2   1   3     2.038936399038   127.44286034   176.45642600
 H      3   2   1     2.055925956430   116.14713191   204.81894350
 H      6   1   2     2.060319175800   116.44605140   156.86719870
 H      8   7   4     2.051755144215   121.11620816     7.83731799
 H      9   8   7     2.057808608489   118.10666916   173.52856810
 H     11  10   9     2.051940343861   121.58372690   182.10354200
 H     12   7   4     2.050343143831   121.57074401   354.00999517
 H     16  14  13     2.067092788834   112.66104022     2.41168347
 H     16  14  13     2.066256917514   109.30200973   241.88050360
 H     16  14  13     2.066559108633   108.69745344   122.23438996
 H     18  17   5     2.055118320035   120.83569793   356.61919126
 H     19  18  17     2.057051089598   118.53223945   180.62467109
 H     21  20  19     2.052884043124   121.27489049   177.74438757
 H     22  17   5     2.055999037625   120.33993644     4.08604213
 H     26  24  23     2.067057725000   112.53680918     6.66176721
 H     26  24  23     2.066917323946   109.19244835   246.10248505
 H     26  24  23     2.066840293357   108.98967962   126.50962495
 H     27   6   1     2.075967429550   113.86001898    62.83308096
 H     27   6   1     2.078911960277   113.74142168   187.69962176

---------------------
BASIS SET INFORMATION
---------------------
There are 4 groups of distinct atoms

 Group   1 Type C   : 16s6p2d1f contracted to 4s3p2d1f pattern {7711/411/11/1}
 Group   2 Type S   : 29s16p2d1f contracted to 5s4p2d1f pattern {99911/7711/11/1}
 Group   3 Type O   : 16s6p2d1f contracted to 4s3p2d1f pattern {7711/411/11/1}
 Group   4 Type H   : 6s2p1d contracted to 3s2p1d pattern {411/11/1}

Atom   0C    basis set group =>   1
Atom   1C    basis set group =>   1
Atom   2C    basis set group =>   1
Atom   3C    basis set group =>   1
Atom   4C    basis set group =>   1
Atom   5C    basis set group =>   1
Atom   6C    basis set group =>   1
Atom   7C    basis set group =>   1
Atom   8C    basis set group =>   1
Atom   9C    basis set group =>   1
Atom  10C    basis set group =>   1
Atom  11C    basis set group =>   1
Atom  12S    basis set group =>   2
Atom  13C    basis set group =>   1
Atom  14O    basis set group =>   3
Atom  15C    basis set group =>   1
Atom  16C    basis set group =>   1
Atom  17C    basis set group =>   1
Atom  18C    basis set group =>   1
Atom  19C    basis set group =>   1
Atom  20C    basis set group =>   1
Atom  21C    basis set group =>   1
Atom  22S    basis set group =>   2
Atom  23C    basis set group =>   1
Atom  24O    basis set group =>   3
Atom  25C    basis set group =>   1
Atom  26C    basis set group =>   1
Atom  27H    basis set group =>   4
Atom  28H    basis set group =>   4
Atom  29H    basis set group =>   4
Atom  30H    basis set group =>   4
Atom  31H    basis set group =>   4
Atom  32H    basis set group =>   4
Atom  33H    basis set group =>   4
Atom  34H    basis set group =>   4
Atom  35H    basis set group =>   4
Atom  36H    basis set group =>   4
Atom  37H    basis set group =>   4
Atom  38H    basis set group =>   4
Atom  39H    basis set group =>   4
Atom  40H    basis set group =>   4
Atom  41H    basis set group =>   4
Atom  42H    basis set group =>   4
Atom  43H    basis set group =>   4
Atom  44H    basis set group =>   4
Atom  45H    basis set group =>   4
Atom  46H    basis set group =>   4
---------------------------------
AUXILIARY/J BASIS SET INFORMATION
---------------------------------
There are 4 groups of distinct atoms

 Group   1 Type C   : 12s5p4d2f1g contracted to 6s4p3d1f1g pattern {711111/2111/211/2/1}
 Group   2 Type S   : 14s5p5d2f1g contracted to 8s4p3d1f1g pattern {71111111/2111/311/2/1}
 Group   3 Type O   : 12s5p4d2f1g contracted to 6s4p3d1f1g pattern {711111/2111/211/2/1}
 Group   4 Type H   : 5s2p1d contracted to 3s1p1d pattern {311/2/1}

Atom   0C    basis set group =>   1
Atom   1C    basis set group =>   1
Atom   2C    basis set group =>   1
Atom   3C    basis set group =>   1
Atom   4C    basis set group =>   1
Atom   5C    basis set group =>   1
Atom   6C    basis set group =>   1
Atom   7C    basis set group =>   1
Atom   8C    basis set group =>   1
Atom   9C    basis set group =>   1
Atom  10C    basis set group =>   1
Atom  11C    basis set group =>   1
Atom  12S    basis set group =>   2
Atom  13C    basis set group =>   1
Atom  14O    basis set group =>   3
Atom  15C    basis set group =>   1
Atom  16C    basis set group =>   1
Atom  17C    basis set group =>   1
Atom  18C    basis set group =>   1
Atom  19C    basis set group =>   1
Atom  20C    basis set group =>   1
Atom  21C    basis set group =>   1
Atom  22S    basis set group =>   2
Atom  23C    basis set group =>   1
Atom  24O    basis set group =>   3
Atom  25C    basis set group =>   1
Atom  26C    basis set group =>   1
Atom  27H    basis set group =>   4
Atom  28H    basis set group =>   4
Atom  29H    basis set group =>   4
Atom  30H    basis set group =>   4
Atom  31H    basis set group =>   4
Atom  32H    basis set group =>   4
Atom  33H    basis set group =>   4
Atom  34H    basis set group =>   4
Atom  35H    basis set group =>   4
Atom  36H    basis set group =>   4
Atom  37H    basis set group =>   4
Atom  38H    basis set group =>   4
Atom  39H    basis set group =>   4
Atom  40H    basis set group =>   4
Atom  41H    basis set group =>   4
Atom  42H    basis set group =>   4
Atom  43H    basis set group =>   4
Atom  44H    basis set group =>   4
Atom  45H    basis set group =>   4
Atom  46H    basis set group =>   4


           ************************************************************
           *        Program running with 4 parallel MPI-processes     *
           *              working on a common directory               *
           ************************************************************
------------------------------------------------------------------------------
                           ORCA GTO INTEGRAL CALCULATION
                           -- RI-GTO INTEGRALS CHOSEN --
------------------------------------------------------------------------------
------------------------------------------------------------------------------
                   ___                                                        
                  /   \      - P O W E R E D   B Y -                         
                 /     \                                                     
                 |  |  |   _    _      __       _____    __    __             
                 |  |  |  | |  | |    /  \     |  _  \  |  |  /  |          
                  \  \/   | |  | |   /    \    | | | |  |  | /  /          
                 / \  \   | |__| |  /  /\  \   | |_| |  |  |/  /          
                |  |  |   |  __  | /  /__\  \  |    /   |      \           
                |  |  |   | |  | | |   __   |  |    \   |  |\   \          
                \     /   | |  | | |  |  |  |  | |\  \  |  | \   \       
                 \___/    |_|  |_| |__|  |__|  |_| \__\ |__|  \__/        
                                                                              
                      - O R C A' S   B I G   F R I E N D -                    
                                      &                                       
                       - I N T E G R A L  F E E D E R -                       
                                                                              
 v1 FN, 2020, v2 2021                                                         
------------------------------------------------------------------------------


Reading SHARK input file NBD_pc-2.SHARKINP.tmp ... ok
----------------------
SHARK INTEGRAL PACKAGE
----------------------

Number of atoms                             ...     47
Number of basis functions                   ...   1098
Number of shells                            ...    394
Maximum angular momentum                    ...      3
Integral batch strategy                     ... SHARK/LIBINT Hybrid
RI-J (if used) integral strategy            ... SPLIT-RIJ (Revised 2003 algorithm where possible)
Printlevel                                  ...      1
Contraction scheme used                     ... SEGMENTED contraction
Coulomb Range Separation                    ... NOT USED
Exchange Range Separation                   ... NOT USED
Finite Nucleus Model                        ... NOT USED
Auxiliary Coulomb fitting basis             ... AVAILABLE
   # of basis functions in Aux-J            ...   1547
   # of shells in Aux-J                     ...    509
   Maximum angular momentum in Aux-J        ...      4
Auxiliary J/K fitting basis                 ... NOT available
Auxiliary Correlation fitting basis         ... NOT available
Auxiliary 'external' fitting basis          ... NOT available
Integral threshold                          ...     1.000000e-12
Primitive cut-off                           ...     1.000000e-14
Primitive pair pre-selection threshold      ...     1.000000e-14

Calculating pre-screening integrals         ... done (  1.1 sec) Dimension = 394
Organizing shell pair data                  ... done (  0.4 sec)
Shell pair information
Total number of shell pairs                 ...     77815
Shell pairs after pre-screening             ...     49010
Total number of primitive shell pairs       ...    407971
Primitive shell pairs kept                  ...    138849
          la=0 lb=0:   9785 shell pairs
          la=1 lb=0:  14234 shell pairs
          la=1 lb=1:   5322 shell pairs
          la=2 lb=0:   7220 shell pairs
          la=2 lb=1:   5359 shell pairs
          la=2 lb=2:   1245 shell pairs
          la=3 lb=0:   2733 shell pairs
          la=3 lb=1:   2023 shell pairs
          la=3 lb=2:    905 shell pairs
          la=3 lb=3:    184 shell pairs

Calculating one electron integrals          ... done (  0.2 sec)
Calculating RI/J V-Matrix + Cholesky decomp.... done (  0.2 sec)
Calculating Nuclear repulsion               ... done (  0.0 sec) ENN=   2516.094783516186 Eh

SHARK setup successfully completed in   2.0 seconds

Maximum memory used throughout the entire GTOINT-calculation: 92.2 MB


           ************************************************************
           *        Program running with 4 parallel MPI-processes     *
           *              working on a common directory               *
           ************************************************************
-------------------------------------------------------------------------------
                                 ORCA SCF
-------------------------------------------------------------------------------

------------
SCF SETTINGS
------------
Hamiltonian:
 Density Functional     Method          .... DFT(GTOs)
 Exchange Functional    Exchange        .... M062X
 Correlation Functional Correlation     .... M062X
 Gradients option       PostSCFGGA      .... off
 Hybrid DFT is turned on
   Fraction HF Exchange ScalHFX         ....  0.540000
   Scaling of DF-GGA-X  ScalDFX         ....  0.460000
   Scaling of DF-GGA-C  ScalDFC         ....  1.000000
   Scaling of DF-LDA-C  ScalLDAC        ....  1.000000
   Perturbative correction              ....  0.000000
   Density functional embedding theory  .... OFF
 RI-approximation to the Coulomb term is turned on
   Number of AuxJ basis functions       .... 1547
   RIJ-COSX (HFX calculated with COS-X)).... on


General Settings:
 Integral files         IntName         .... NBD_pc-2
 Hartree-Fock type      HFTyp           .... RHF
 Total Charge           Charge          ....    0
 Multiplicity           Mult            ....    1
 Number of Electrons    NEL             ....  206
 Basis Dimension        Dim             .... 1098
 Nuclear Repulsion      ENuc            ....   2516.0947835162 Eh

Convergence Acceleration:
 DIIS                   CNVDIIS         .... on
   Start iteration      DIISMaxIt       ....    12
   Startup error        DIISStart       ....  0.200000
   # of expansion vecs  DIISMaxEq       ....     5
   Bias factor          DIISBfac        ....   1.050
   Max. coefficient     DIISMaxC        ....  10.000
 Trust-Rad. Augm. Hess. CNVTRAH         .... auto
   Auto Start mean grad. ratio tolernc. ....  1.125000
   Auto Start start iteration           ....    20
   Auto Start num. interpolation iter.  ....    10
   Max. Number of Micro iterations      ....    16
   Max. Number of Macro iterations      .... Maxiter - #DIIS iter
   Number of Davidson start vectors     ....     2
   Converg. threshold I  (grad. norm)   ....   2.000e-06
   Converg. threshold II (energy diff.) ....   1.000e-09
   Grad. Scal. Fac. for Micro threshold ....   0.100
   Minimum threshold for Micro iter.    ....   0.010
   NR start threshold (gradient norm)   ....   0.001
   Initial trust radius                 ....   0.400
   Minimum AH scaling param. (alpha)    ....   1.000
   Maximum AH scaling param. (alpha)    .... 1000.000
   Orbital update algorithm             .... Taylor
   White noise on init. David. guess    .... on
   Maximum white noise                  ....   0.010
   Quad. conv. algorithm                .... NR
 SOSCF                  CNVSOSCF        .... on
   Start iteration      SOSCFMaxIt      ....   150
   Startup grad/error   SOSCFStart      ....  0.003300
 Level Shifting         CNVShift        .... on
   Level shift para.    LevelShift      ....    0.2500
   Turn off err/grad.   ShiftErr        ....    0.0010
 Zerner damping         CNVZerner       .... off
 Static damping         CNVDamp         .... on
   Fraction old density DampFac         ....    0.7000
   Max. Damping (<1)    DampMax         ....    0.9800
   Min. Damping (>=0)   DampMin         ....    0.0000
   Turn off err/grad.   DampErr         ....    0.1000
 Fernandez-Rico         CNVRico         .... off

SCF Procedure:
 Maximum # iterations   MaxIter         ....   125
 SCF integral mode      SCFMode         .... Direct
   Integral package                     .... SHARK and LIBINT hybrid scheme
 Reset frequency        DirectResetFreq ....    20
 Integral Threshold     Thresh          ....  1.000e-12 Eh
 Primitive CutOff       TCut            ....  1.000e-14 Eh

Convergence Tolerance:
 Convergence Check Mode ConvCheckMode   .... Total+1el-Energy
 Convergence forced     ConvForced      .... 0
 Energy Change          TolE            ....  1.000e-09 Eh
 1-El. energy change                    ....  1.000e-06 Eh
 Orbital Gradient       TolG            ....  2.000e-06
 Orbital Rotation angle TolX            ....  2.000e-06
 DIIS Error             TolErr          ....  1.000e-08


Diagonalization of the overlap matrix:
Smallest eigenvalue                        ... 5.278e-05
Time for diagonalization                   ...    0.271 sec
Threshold for overlap eigenvalues          ... 1.000e-08
Number of eigenvalues below threshold      ... 0
Time for construction of square roots      ...    0.201 sec
Total time needed                          ...    0.475 sec

Time for model grid setup =    0.894 sec

------------------------------
INITIAL GUESS: MODEL POTENTIAL
------------------------------
Loading Hartree-Fock densities                     ... done
Calculating cut-offs                               ... done
Initializing the effective Hamiltonian             ... done
Setting up the integral package (SHARK)            ... done
Starting the Coulomb interaction                   ... done (   2.2 sec)
Reading the grid                                   ... done
Mapping shells                                     ... done
Starting the XC term evaluation                    ... done (   1.2 sec)
  promolecular density results
     # of electrons  =    205.993860628
     EX              =   -189.633437393
     EC              =     -7.080850088
     EX+EC           =   -196.714287481
Transforming the Hamiltonian                       ... done (   0.2 sec)
Diagonalizing the Hamiltonian                      ... done (   0.3 sec)
Back transforming the eigenvectors                 ... done (   0.1 sec)
Now organizing SCF variables                       ... done
                      ------------------
                      INITIAL GUESS DONE (   4.8 sec)
                      ------------------
-------------------
DFT GRID GENERATION
-------------------

General Integration Accuracy     IntAcc      ... 4.388
Radial Grid Type                 RadialGrid  ... OptM3 with GC (2021)
Angular Grid (max. ang.)         AngularGrid ... 4 (Lebedev-302)
Angular grid pruning method      GridPruning ... 4 (adaptive)
Weight generation scheme         WeightScheme... Becke
Basis function cutoff            BFCut       ... 1.0000e-12
Integration weight cutoff        WCut        ... 1.0000e-14
Angular grids for H and He will be reduced by one unit
Partially contracted basis set               ... off
Rotationally invariant grid construction     ... off

Total number of grid points                  ...   228009
Total number of batches                      ...     3587
Average number of points per batch           ...       63
Average number of grid points per atom       ...     4851
Time for grid setup =    3.179 sec

--------------------
COSX GRID GENERATION
--------------------

GRIDX 1
-------
General Integration Accuracy     IntAcc      ... 3.816
Radial Grid Type                 RadialGrid  ... OptM3 with GC (2021)
Angular Grid (max. ang.)         AngularGrid ... 1 (Lebedev-50)
Angular grid pruning method      GridPruning ... 4 (adaptive)
Weight generation scheme         WeightScheme... Becke
Basis function cutoff            BFCut       ... 1.0000e-12
Integration weight cutoff        WCut        ... 1.0000e-14
Angular grids for H and He will be reduced by one unit
Partially contracted basis set               ... on
Rotationally invariant grid construction     ... off

Total number of grid points                  ...    28814
Total number of batches                      ...      469
Average number of points per batch           ...       61
Average number of grid points per atom       ...      613
UseSFitting                                  ... on

GRIDX 2
-------
General Integration Accuracy     IntAcc      ... 4.020
Radial Grid Type                 RadialGrid  ... OptM3 with GC (2021)
Angular Grid (max. ang.)         AngularGrid ... 2 (Lebedev-110)
Angular grid pruning method      GridPruning ... 4 (adaptive)
Weight generation scheme         WeightScheme... Becke
Basis function cutoff            BFCut       ... 1.0000e-12
Integration weight cutoff        WCut        ... 1.0000e-14
Angular grids for H and He will be reduced by one unit
Partially contracted basis set               ... on
Rotationally invariant grid construction     ... off

Total number of grid points                  ...    63082
Total number of batches                      ...     1006
Average number of points per batch           ...       62
Average number of grid points per atom       ...     1342
UseSFitting                                  ... on

GRIDX 3
-------
General Integration Accuracy     IntAcc      ... 4.338
Radial Grid Type                 RadialGrid  ... OptM3 with GC (2021)
Angular Grid (max. ang.)         AngularGrid ... 3 (Lebedev-194)
Angular grid pruning method      GridPruning ... 4 (adaptive)
Weight generation scheme         WeightScheme... Becke
Basis function cutoff            BFCut       ... 1.0000e-12
Integration weight cutoff        WCut        ... 1.0000e-14
Angular grids for H and He will be reduced by one unit
Partially contracted basis set               ... on
Rotationally invariant grid construction     ... off

Total number of grid points                  ...   138745
Total number of batches                      ...     2193
Average number of points per batch           ...       63
Average number of grid points per atom       ...     2952
UseSFitting                                  ... on

Time for X-Grid setup             =    6.105 sec

--------------
SCF ITERATIONS
--------------
ITER       Energy         Delta-E        Max-DP      RMS-DP      [F,P]     Damp
               ***  Starting incremental Fock matrix formation  ***
  0  -1834.5200337126   0.000000000000 0.06944930  0.00058071  0.2720530 0.7000
  1  -1834.8424088543  -0.322375141743 0.04678564  0.00041831  0.1196333 0.7000
                               ***Turning on DIIS***
  2  -1834.9833471969  -0.140938342511 0.08605871  0.00078178  0.0475566 0.0000
  3  -1835.2115029262  -0.228155729339 0.02684439  0.00032139  0.0578939 0.0000
  4  -1835.2546853906  -0.043182464453 0.01536187  0.00009379  0.0182236 0.0000
  5  -1835.2566648701  -0.001979479408 0.00439755  0.00003591  0.0102551 0.0000
                      *** Initiating the SOSCF procedure ***
                           *** Shutting down DIIS ***
                      *** Re-Reading the Fockian *** 
                      *** Removing any level shift *** 
ITER      Energy       Delta-E        Grad      Rot      Max-DP    RMS-DP
  6  -1835.25704464  -0.0003797725  0.000970  0.000970  0.001772  0.000018
               *** Restarting incremental Fock matrix formation ***
  7  -1835.25701149   0.0000331496  0.000627  0.002402  0.001529  0.000020
  8  -1835.25703883  -0.0000273400  0.000255  0.002284  0.001230  0.000014
  9  -1835.25704013  -0.0000013012  0.000273  0.000897  0.000624  0.000007
 10  -1835.25704479  -0.0000046561  0.000045  0.000190  0.000198  0.000002
 11  -1835.25704477   0.0000000175  0.000039  0.000073  0.000074  0.000001
 12  -1835.25704495  -0.0000001814  0.000004  0.000013  0.000029  0.000000
 13  -1835.25704495   0.0000000002  0.000004  0.000008  0.000012  0.000000
 14  -1835.25704496  -0.0000000028  0.000001  0.000002  0.000005  0.000000
 15  -1835.25704496  -0.0000000019  0.000001  0.000001  0.000003  0.000000
                  ***Gradient check signals convergence***
              ***Rediagonalizing the Fockian in SOSCF/NRSCF***

               *****************************************************
               *                     SUCCESS                       *
               *           SCF CONVERGED AFTER  16 CYCLES          *
               *****************************************************

Old exchange energy                            =   -104.094809317 Eh
New exchange energy                            =   -104.094661661 Eh
Exchange energy change after final integration =      0.000147656 Eh
Total energy after final integration           =  -1835.256897303 Eh
Final COS-X integration done in                =   143.423 sec

----------------
TOTAL SCF ENERGY
----------------

Total Energy       :        -1835.25689730 Eh          -49939.87907 eV

Components:
Nuclear Repulsion  :         2516.09478352 Eh           68466.41982 eV
Electronic Energy  :        -4351.35168082 Eh         -118406.29889 eV
One Electron Energy:        -7512.36354191 Eh         -204421.80458 eV
Two Electron Energy:         3161.01186109 Eh           86015.50568 eV
Max COSX asymmetry :            0.00002438 Eh               0.00066 eV

Virial components:
Potential Energy   :        -3665.49203713 Eh          -99743.10917 eV
Kinetic Energy     :         1830.23513983 Eh           49803.23010 eV
Virial Ratio       :            2.00274378


DFT components:
N(Alpha)           :      103.000040513715 electrons
N(Beta)            :      103.000040513715 electrons
N(Total)           :      206.000081027430 electrons
E(XC)              :      -96.377899193612 Eh       
DFET-embed. en.    :        0.000000000000 Eh       

---------------
SCF CONVERGENCE
---------------

  Last Energy change         ...   -1.4848e-10  Tolerance :   1.0000e-09
  Last MAX-Density change    ...    5.3291e-15  Tolerance :   1.0000e-08
  Last RMS-Density change    ...    1.9582e-17  Tolerance :   1.0000e-09
  Last Orbital Gradient      ...    1.7602e-07  Tolerance :   2.0000e-06
  Last Orbital Rotation      ...    6.9300e-07  Tolerance :   2.0000e-06

             **** THE GBW FILE WAS UPDATED (NBD_pc-2.gbw) ****
             **** DENSITY NBD_pc-2.scfp WAS UPDATED ****
             **** ENERGY FILE WAS UPDATED (NBD_pc-2.en.tmp) ****
             **** THE GBW FILE WAS UPDATED (NBD_pc-2.gbw) ****
             **** DENSITY NBD_pc-2.scfp WAS UPDATED ****
----------------
ORBITAL ENERGIES
----------------

  NO   OCC          E(Eh)            E(eV) 
   0   2.0000     -89.911210     -2446.6084 
   1   2.0000     -89.909300     -2446.5564 
   2   2.0000     -19.629666      -534.1504 
   3   2.0000     -19.624113      -533.9993 
   4   2.0000     -10.665741      -290.2296 
   5   2.0000     -10.661666      -290.1187 
   6   2.0000     -10.587654      -288.1047 
   7   2.0000     -10.583392      -287.9887 
   8   2.0000     -10.563516      -287.4479 
   9   2.0000     -10.562465      -287.4193 
  10   2.0000     -10.560719      -287.3718 
  11   2.0000     -10.560303      -287.3605 
  12   2.0000     -10.559317      -287.3336 
  13   2.0000     -10.557168      -287.2751 
  14   2.0000     -10.557079      -287.2727 
  15   2.0000     -10.556488      -287.2566 
  16   2.0000     -10.555561      -287.2314 
  17   2.0000     -10.554312      -287.1974 
  18   2.0000     -10.553334      -287.1708 
  19   2.0000     -10.552747      -287.1549 
  20   2.0000     -10.551937      -287.1328 
  21   2.0000     -10.550952      -287.1060 
  22   2.0000     -10.549890      -287.0771 
  23   2.0000     -10.548198      -287.0311 
  24   2.0000     -10.541115      -286.8383 
  25   2.0000     -10.540055      -286.8095 
  26   2.0000     -10.538818      -286.7758 
  27   2.0000      -8.284311      -225.4276 
  28   2.0000      -8.282473      -225.3776 
  29   2.0000      -6.204779      -168.8406 
  30   2.0000      -6.202997      -168.7921 
  31   2.0000      -6.202891      -168.7892 
  32   2.0000      -6.201707      -168.7570 
  33   2.0000      -6.201089      -168.7402 
  34   2.0000      -6.199946      -168.7091 
  35   2.0000      -1.177072       -32.0298 
  36   2.0000      -1.172211       -31.8975 
  37   2.0000      -1.016054       -27.6482 
  38   2.0000      -0.979740       -26.6601 
  39   2.0000      -0.976027       -26.5590 
  40   2.0000      -0.916389       -24.9362 
  41   2.0000      -0.910315       -24.7709 
  42   2.0000      -0.879691       -23.9376 
  43   2.0000      -0.869995       -23.6738 
  44   2.0000      -0.853185       -23.2164 
  45   2.0000      -0.846933       -23.0462 
  46   2.0000      -0.844511       -22.9803 
  47   2.0000      -0.826053       -22.4781 
  48   2.0000      -0.810505       -22.0550 
  49   2.0000      -0.796144       -21.6642 
  50   2.0000      -0.779980       -21.2243 
  51   2.0000      -0.711254       -19.3542 
  52   2.0000      -0.705168       -19.1886 
  53   2.0000      -0.698374       -19.0037 
  54   2.0000      -0.688551       -18.7364 
  55   2.0000      -0.645320       -17.5601 
  56   2.0000      -0.638062       -17.3625 
  57   2.0000      -0.634200       -17.2575 
  58   2.0000      -0.630719       -17.1627 
  59   2.0000      -0.611996       -16.6532 
  60   2.0000      -0.597802       -16.2670 
  61   2.0000      -0.577250       -15.7078 
  62   2.0000      -0.566358       -15.4114 
  63   2.0000      -0.560904       -15.2630 
  64   2.0000      -0.546241       -14.8640 
  65   2.0000      -0.542659       -14.7665 
  66   2.0000      -0.535237       -14.5646 
  67   2.0000      -0.531978       -14.4758 
  68   2.0000      -0.529146       -14.3988 
  69   2.0000      -0.524134       -14.2624 
  70   2.0000      -0.520727       -14.1697 
  71   2.0000      -0.519555       -14.1378 
  72   2.0000      -0.507516       -13.8102 
  73   2.0000      -0.503954       -13.7133 
  74   2.0000      -0.494536       -13.4570 
  75   2.0000      -0.487833       -13.2746 
  76   2.0000      -0.473979       -12.8976 
  77   2.0000      -0.473270       -12.8783 
  78   2.0000      -0.470164       -12.7938 
  79   2.0000      -0.463811       -12.6209 
  80   2.0000      -0.455035       -12.3821 
  81   2.0000      -0.450239       -12.2516 
  82   2.0000      -0.445130       -12.1126 
  83   2.0000      -0.443276       -12.0621 
  84   2.0000      -0.438965       -11.9448 
  85   2.0000      -0.435933       -11.8623 
  86   2.0000      -0.421322       -11.4647 
  87   2.0000      -0.415635       -11.3100 
  88   2.0000      -0.412533       -11.2256 
  89   2.0000      -0.402933       -10.9644 
  90   2.0000      -0.398683       -10.8487 
  91   2.0000      -0.394157       -10.7256 
  92   2.0000      -0.388426       -10.5696 
  93   2.0000      -0.371608       -10.1120 
  94   2.0000      -0.362942        -9.8761 
  95   2.0000      -0.337414        -9.1815 
  96   2.0000      -0.332305        -9.0425 
  97   2.0000      -0.322871        -8.7858 
  98   2.0000      -0.317694        -8.6449 
  99   2.0000      -0.308093        -8.3836 
 100   2.0000      -0.302928        -8.2431 
 101   2.0000      -0.291656        -7.9364 
 102   2.0000      -0.251435        -6.8419 
 103   0.0000      -0.042180        -1.1478 
 104   0.0000      -0.008927        -0.2429 
 105   0.0000       0.001960         0.0533 
 106   0.0000       0.008136         0.2214 
 107   0.0000       0.016427         0.4470 
 108   0.0000       0.026202         0.7130 
 109   0.0000       0.031059         0.8452 
 110   0.0000       0.036085         0.9819 
 111   0.0000       0.043407         1.1812 
 112   0.0000       0.043962         1.1963 
 113   0.0000       0.047821         1.3013 
 114   0.0000       0.048852         1.3293 
 115   0.0000       0.059228         1.6117 
 116   0.0000       0.061692         1.6787 
 117   0.0000       0.068006         1.8505 
 118   0.0000       0.072389         1.9698 
 119   0.0000       0.073543         2.0012 
 120   0.0000       0.076609         2.0846 
 121   0.0000       0.082468         2.2441 
 122   0.0000       0.087278         2.3750 
 123   0.0000       0.091037         2.4773 
 124   0.0000       0.093660         2.5486 
 125   0.0000       0.096908         2.6370 
 126   0.0000       0.099812         2.7160 
 127   0.0000       0.100368         2.7311 
 128   0.0000       0.103438         2.8147 
 129   0.0000       0.107341         2.9209 
 130   0.0000       0.109673         2.9844 
 131   0.0000       0.115786         3.1507 
 132   0.0000       0.121513         3.3065 
 133   0.0000       0.131676         3.5831 
 134   0.0000       0.140285         3.8173 
 135   0.0000       0.142178         3.8689 
 136   0.0000       0.149418         4.0659 
 137   0.0000       0.153309         4.1717 
 138   0.0000       0.159618         4.3434 
 139   0.0000       0.165612         4.5065 
 140   0.0000       0.169849         4.6218 
 141   0.0000       0.170833         4.6486 
 142   0.0000       0.177624         4.8334 
 143   0.0000       0.179035         4.8718 
 144   0.0000       0.185895         5.0584 
 145   0.0000       0.188214         5.1216 
 146   0.0000       0.189284         5.1507 
 147   0.0000       0.191866         5.2209 
 148   0.0000       0.195638         5.3236 
 149   0.0000       0.196559         5.3486 
 150   0.0000       0.200155         5.4465 
 151   0.0000       0.202963         5.5229 
 152   0.0000       0.209202         5.6927 
 153   0.0000       0.213582         5.8119 
 154   0.0000       0.216719         5.8972 
 155   0.0000       0.221319         6.0224 
 156   0.0000       0.224077         6.0974 
 157   0.0000       0.228602         6.2206 
 158   0.0000       0.234569         6.3829 
 159   0.0000       0.236363         6.4318 
 160   0.0000       0.241025         6.5586 
 161   0.0000       0.244988         6.6665 
 162   0.0000       0.247105         6.7241 
 163   0.0000       0.250428         6.8145 
 164   0.0000       0.254409         6.9228 
 165   0.0000       0.258860         7.0439 
 166   0.0000       0.262865         7.1529 
 167   0.0000       0.268727         7.3124 
 168   0.0000       0.272152         7.4056 
 169   0.0000       0.274203         7.4614 
 170   0.0000       0.277893         7.5618 
 171   0.0000       0.280890         7.6434 
 172   0.0000       0.284195         7.7333 
 173   0.0000       0.286258         7.7895 
 174   0.0000       0.294326         8.0090 
 175   0.0000       0.295263         8.0345 
 176   0.0000       0.300270         8.1708 
 177   0.0000       0.303809         8.2671 
 178   0.0000       0.306208         8.3324 
 179   0.0000       0.309850         8.4315 
 180   0.0000       0.311735         8.4827 
 181   0.0000       0.313478         8.5302 
 182   0.0000       0.315864         8.5951 
 183   0.0000       0.322586         8.7780 
 184   0.0000       0.325954         8.8697 
 185   0.0000       0.327885         8.9222 
 186   0.0000       0.331344         9.0163 
 187   0.0000       0.333438         9.0733 
 188   0.0000       0.335526         9.1301 
 189   0.0000       0.338586         9.2134 
 190   0.0000       0.341440         9.2910 
 191   0.0000       0.342346         9.3157 
 192   0.0000       0.347524         9.4566 
 193   0.0000       0.348418         9.4809 
 194   0.0000       0.351363         9.5611 
 195   0.0000       0.354661         9.6508 
 196   0.0000       0.359068         9.7707 
 197   0.0000       0.360034         9.7970 
 198   0.0000       0.363103         9.8805 
 199   0.0000       0.364341         9.9142 
 200   0.0000       0.368991        10.0408 
 201   0.0000       0.370324        10.0770 
 202   0.0000       0.373873        10.1736 
 203   0.0000       0.375569        10.2198 
 204   0.0000       0.378017        10.2864 
 205   0.0000       0.380432        10.3521 
 206   0.0000       0.384697        10.4681 
 207   0.0000       0.387989        10.5577 
 208   0.0000       0.390966        10.6387 
 209   0.0000       0.393324        10.7029 
 210   0.0000       0.397056        10.8044 
 211   0.0000       0.397865        10.8265 
 212   0.0000       0.399637        10.8747 
 213   0.0000       0.403520        10.9803 
 214   0.0000       0.409681        11.1480 
 215   0.0000       0.410780        11.1779 
 216   0.0000       0.417069        11.3490 
 217   0.0000       0.420260        11.4358 
 218   0.0000       0.427013        11.6196 
 219   0.0000       0.430316        11.7095 
 220   0.0000       0.434212        11.8155 
 221   0.0000       0.436551        11.8792 
 222   0.0000       0.444468        12.0946 
 223   0.0000       0.445276        12.1166 
 224   0.0000       0.449769        12.2388 
 225   0.0000       0.454649        12.3716 
 226   0.0000       0.462735        12.5917 
 227   0.0000       0.468598        12.7512 
 228   0.0000       0.469717        12.7816 
 229   0.0000       0.479567        13.0497 
 230   0.0000       0.481821        13.1110 
 231   0.0000       0.489975        13.3329 
 232   0.0000       0.494350        13.4520 
 233   0.0000       0.497658        13.5420 
 234   0.0000       0.503231        13.6936 
 235   0.0000       0.507581        13.8120 
 236   0.0000       0.511456        13.9174 
 237   0.0000       0.512802        13.9541 
 238   0.0000       0.517589        14.0843 
 239   0.0000       0.529619        14.4117 
 240   0.0000       0.531612        14.4659 
 241   0.0000       0.536835        14.6080 
 242   0.0000       0.542730        14.7684 
 243   0.0000       0.549852        14.9622 
 244   0.0000       0.553438        15.0598 
 245   0.0000       0.557360        15.1665 
 246   0.0000       0.561434        15.2774 
 247   0.0000       0.566461        15.4142 
 248   0.0000       0.572414        15.5762 
 249   0.0000       0.579549        15.7703 
 250   0.0000       0.583815        15.8864 
 251   0.0000       0.586334        15.9550 
 252   0.0000       0.589996        16.0546 
 253   0.0000       0.591440        16.0939 
 254   0.0000       0.601504        16.3677 
 255   0.0000       0.603842        16.4314 
 256   0.0000       0.608573        16.5601 
 257   0.0000       0.611685        16.6448 
 258   0.0000       0.614287        16.7156 
 259   0.0000       0.619058        16.8454 
 260   0.0000       0.632839        17.2204 
 261   0.0000       0.636025        17.3071 
 262   0.0000       0.639643        17.4056 
 263   0.0000       0.642459        17.4822 
[...]
 37:    502.98   0.001133    5.72  0.000703  (-0.023295 -0.012474 -0.002091)
 38:    525.48   0.001844    9.32  0.001095  ( 0.021391  0.017903  0.017803)
 39:    539.57   0.000587    2.96  0.000339  (-0.011399  0.013924 -0.003934)
 40:    542.77   0.000395    2.00  0.000227  (-0.014663 -0.003211 -0.001284)
 41:    548.39   0.000561    2.83  0.000319  ( 0.013352 -0.007093 -0.009516)
 42:    570.25   0.000620    3.13  0.000339  ( 0.015785 -0.004635  0.008273)
 43:    602.60   0.002521   12.74  0.001306  (-0.005584 -0.022669 -0.027581)
 44:    606.59   0.000786    3.97  0.000404  (-0.013656 -0.014382  0.003312)
 45:    627.16   0.015511   78.38  0.007718  ( 0.064143  0.003086 -0.059950)
 46:    629.11   0.017456   88.21  0.008659  (-0.006111 -0.087609 -0.030758)
 47:    645.21   0.000267    1.35  0.000129  ( 0.006817  0.007872 -0.004533)
 48:    653.62   0.000283    1.43  0.000135  ( 0.001287  0.005586  0.010121)
 49:    704.59   0.000658    3.33  0.000291  ( 0.013440  0.007800 -0.007071)
 50:    729.66   0.000734    3.71  0.000314  (-0.005909 -0.016087  0.004479)
 51:    737.60   0.007852   39.68  0.003322  (-0.049939 -0.008927  0.027362)
 52:    751.33   0.000670    3.38  0.000278  ( 0.010688 -0.003257 -0.012383)
 53:    764.19   0.001184    5.98  0.000483  ( 0.014955 -0.010341 -0.012359)
 54:    767.36   0.002760   13.95  0.001123  (-0.026246 -0.009454  0.018556)
 55:    812.75   0.003210   16.22  0.001232  ( 0.017184  0.029949  0.006340)
 56:    833.20   0.002623   13.25  0.000982  (-0.022809  0.008779  0.019619)
 57:    857.59   0.003916   19.79  0.001425  (-0.008071 -0.014087 -0.034078)
 58:    862.42   0.005632   28.46  0.002038  (-0.002709  0.029017  0.034473)
 59:    866.38   0.005313   26.85  0.001914  ( 0.013008  0.030628  0.028397)
 60:    874.28   0.000843    4.26  0.000301  (-0.015863 -0.005395 -0.004477)
 61:    890.71   0.000054    0.27  0.000019  ( 0.001006 -0.001223  0.004058)
 62:    913.04   0.000881    4.45  0.000301  (-0.006916  0.005818  0.014808)
 63:    932.06   0.000366    1.85  0.000123  ( 0.001899  0.009979 -0.004407)
 64:    947.68   0.000223    1.13  0.000074  ( 0.008004  0.000347 -0.003055)
 65:    961.68   0.000065    0.33  0.000021  (-0.000077  0.002886  0.003568)
 66:    983.54   0.001054    5.32  0.000334  ( 0.011173  0.013701  0.004661)
 67:    985.53   0.010405   52.58  0.003295  ( 0.013910  0.051884  0.020233)
 68:    991.82   0.000343    1.73  0.000108  ( 0.008267  0.006171  0.001237)
 69:    994.25   0.006206   31.36  0.001948  ( 0.036177  0.000785 -0.025267)
 70:    995.21   0.006220   31.43  0.001950  ( 0.026643 -0.014255 -0.032206)
 71:    999.04   0.000282    1.43  0.000088  ( 0.003815 -0.004193 -0.007490)
 72:   1011.25   0.000021    0.10  0.000006  ( 0.001326 -0.000478  0.002104)
 73:   1013.81   0.000179    0.90  0.000055  ( 0.005996 -0.004062 -0.001607)
 74:   1019.80   0.000740    3.74  0.000226  (-0.007008 -0.008074 -0.010583)
 75:   1025.59   0.001097    5.55  0.000334  ( 0.001872  0.017353 -0.005408)
 76:   1036.59   0.003649   18.44  0.001099  ( 0.007910  0.032186 -0.000152)
 77:   1041.41   0.001600    8.09  0.000479  ( 0.011309 -0.015603 -0.010396)
 78:   1052.57   0.000782    3.95  0.000232  (-0.014273  0.000812  0.005236)
 79:   1067.71   0.000455    2.30  0.000133  ( 0.002653  0.009776  0.005500)
 80:   1108.93   0.000227    1.15  0.000064  ( 0.002750  0.003988  0.006365)
 81:   1125.92   0.030243  152.84  0.008382  (-0.069459 -0.018448  0.056724)
 82:   1127.60   0.039474  199.48  0.010924  (-0.004515  0.095071  0.043191)
 83:   1136.12   0.001241    6.27  0.000341  ( 0.003025  0.015977 -0.008741)
 84:   1141.71   0.004695   23.73  0.001283  (-0.020450  0.000497  0.029409)
 85:   1145.18   0.004080   20.62  0.001112  ( 0.022461  0.024367 -0.003683)
 86:   1146.34   0.006065   30.65  0.001651  (-0.009903  0.035155  0.017809)
 87:   1154.60   0.001165    5.89  0.000315  ( 0.003405 -0.010992  0.013510)
 88:   1180.59   0.000096    0.49  0.000025  (-0.001562 -0.004792  0.000146)
 89:   1213.00   0.000208    1.05  0.000054  ( 0.003543 -0.002635 -0.005841)
 90:   1223.18   0.000034    0.17  0.000009  ( 0.001892 -0.000036  0.002262)
 91:   1234.25   0.000589    2.98  0.000149  ( 0.011760  0.001819 -0.002698)
 92:   1262.01   0.000159    0.81  0.000039  ( 0.004415  0.001307  0.004268)
 93:   1271.14   0.000480    2.43  0.000118  ( 0.001735 -0.008118  0.006994)
 94:   1274.90   0.001080    5.46  0.000264  (-0.004248  0.009644  0.012379)
 95:   1279.96   0.000680    3.44  0.000166  (-0.000225 -0.012794  0.001462)
 96:   1294.80   0.000548    2.77  0.000132  (-0.003842 -0.002385 -0.010563)
 97:   1301.67   0.000046    0.23  0.000011  (-0.001012  0.003128 -0.000460)
 98:   1328.64   0.002538   12.83  0.000596  (-0.001256 -0.024274  0.002307)
 99:   1333.60   0.001417    7.16  0.000332  (-0.000704  0.018173  0.000936)
100:   1342.21   0.000195    0.99  0.000045  ( 0.003227  0.005753 -0.001384)
101:   1380.25   0.000531    2.68  0.000120  ( 0.000140 -0.010820  0.001693)
102:   1387.51   0.004110   20.77  0.000924  (-0.024339 -0.008107  0.016316)
103:   1389.76   0.004651   23.50  0.001044  (-0.008931  0.024900  0.018563)
104:   1442.44   0.001476    7.46  0.000319  (-0.016566  0.002160  0.006347)
105:   1444.55   0.001735    8.77  0.000375  (-0.005166  0.013071 -0.013311)
106:   1471.49   0.002061   10.42  0.000437  (-0.013159 -0.004303  0.015666)
107:   1472.87   0.002126   10.74  0.000450  ( 0.011738  0.013759  0.011104)
108:   1478.32   0.002237   11.30  0.000472  (-0.019387  0.007205 -0.006668)
109:   1479.19   0.002568   12.98  0.000542  ( 0.002053 -0.020752  0.010342)
110:   1502.50   0.000740    3.74  0.000154  ( 0.003392  0.000455 -0.011912)
111:   1537.41   0.003103   15.68  0.000630  ( 0.021502  0.001900 -0.012804)
112:   1548.49   0.007616   38.49  0.001535  (-0.001101 -0.039124 -0.001693)
113:   1623.54   0.000041    0.21  0.000008  ( 0.002295 -0.001321 -0.000974)
114:   1625.93   0.000421    2.13  0.000081  ( 0.000580 -0.008080  0.003886)
115:   1659.81   0.001781    9.00  0.000335  ( 0.017917  0.003670 -0.000583)
116:   1666.67   0.001366    6.91  0.000256  (-0.015404 -0.003939 -0.001750)
117:   1669.13   0.003279   16.57  0.000613  ( 0.001945 -0.024583 -0.002214)
118:   1719.07   0.001970    9.96  0.000358  ( 0.017563  0.004775 -0.005141)
119:   1824.31   0.040082  202.56  0.006856  (-0.017298  0.065342  0.047829)
120:   1827.93   0.047019  237.61  0.008027  ( 0.070177  0.055697 -0.000291)
121:   3084.90   0.000063    0.32  0.000006  (-0.001545  0.001969  0.000254)
122:   3085.61   0.000062    0.31  0.000006  ( 0.001569  0.001928 -0.000340)
123:   3099.01   0.006585   33.28  0.000663  (-0.007762 -0.000660  0.024544)
124:   3164.50   0.004440   22.44  0.000438  ( 0.001265 -0.019984 -0.006072)
125:   3166.47   0.005211   26.34  0.000514  (-0.022655 -0.000447 -0.000375)
126:   3169.54   0.000312    1.58  0.000031  ( 0.003624 -0.004184 -0.000309)
127:   3170.41   0.002278   11.51  0.000224  ( 0.001544  0.013636 -0.005991)
128:   3170.77   0.000085    0.43  0.000008  (-0.000113 -0.002643  0.001152)
129:   3190.10   0.000292    1.48  0.000029  (-0.003970 -0.003570 -0.000276)
130:   3190.57   0.000323    1.63  0.000032  ( 0.000736  0.005405  0.001357)
131:   3208.63   0.000863    4.36  0.000084  ( 0.008180  0.003553 -0.002089)
132:   3213.10   0.000997    5.04  0.000097  (-0.006410  0.002003  0.007195)
133:   3219.02   0.000231    1.17  0.000022  (-0.001532  0.004467 -0.000237)
134:   3220.79   0.000383    1.94  0.000037  ( 0.000719  0.005618 -0.002246)
135:   3226.00   0.000699    3.53  0.000068  (-0.006501  0.004980 -0.000737)
136:   3232.92   0.000324    1.64  0.000031  ( 0.001175 -0.003902  0.003827)
137:   3235.60   0.000239    1.21  0.000023  ( 0.000255  0.003274 -0.003506)
138:   3237.61   0.000183    0.93  0.000018  ( 0.002965  0.000056  0.002981)
139:   3241.01   0.000232    1.17  0.000022  ( 0.000690 -0.004573  0.000975)
140:   3266.12   0.000637    3.22  0.000061  (-0.006739 -0.000255 -0.003925)

* The epsilon (eps) is given for a Dirac delta lineshape.
** The dipole moment derivative (T) already includes vibrational overlap.

The first frequency considered to be a vibration is 8
The total number of vibrations considered is 133


--------------------------
THERMOCHEMISTRY AT 298.15K
--------------------------

Temperature         ... 298.15 K
Pressure            ... 1.00 atm
Total Mass          ... 392.53 AMU

Throughout the following assumptions are being made:
  (1) The electronic state is orbitally nondegenerate
  (2) There are no thermally accessible electronically excited states
  (3) Hindered rotations indicated by low frequency modes are not
      treated as such but are treated as vibrations and this may
      cause some error
  (4) All equations used are the standard statistical mechanics
      equations for an ideal gas
  (5) All vibrations are strictly harmonic

freq.      20.82  E(vib)   ...       0.56 
freq.      23.37  E(vib)   ...       0.56 
freq.      36.59  E(vib)   ...       0.54 
freq.      43.05  E(vib)   ...       0.53 
freq.      57.48  E(vib)   ...       0.51 
freq.      60.74  E(vib)   ...       0.51 
freq.      68.36  E(vib)   ...       0.50 
freq.      75.97  E(vib)   ...       0.49 
freq.      86.84  E(vib)   ...       0.48 
freq.      94.72  E(vib)   ...       0.47 
freq.      96.17  E(vib)   ...       0.47 
freq.     125.47  E(vib)   ...       0.43 
freq.     165.63  E(vib)   ...       0.39 
freq.     186.95  E(vib)   ...       0.36 
freq.     211.36  E(vib)   ...       0.34 
freq.     218.30  E(vib)   ...       0.33 
freq.     254.01  E(vib)   ...       0.30 
freq.     283.46  E(vib)   ...       0.28 
freq.     324.18  E(vib)   ...       0.25 
freq.     336.07  E(vib)   ...       0.24 
freq.     338.94  E(vib)   ...       0.23 
freq.     344.94  E(vib)   ...       0.23 
freq.     372.85  E(vib)   ...       0.21 
freq.     414.78  E(vib)   ...       0.19 
freq.     419.87  E(vib)   ...       0.18 
freq.     425.59  E(vib)   ...       0.18 
freq.     469.38  E(vib)   ...       0.16 
freq.     473.20  E(vib)   ...       0.15 
freq.     500.83  E(vib)   ...       0.14 
freq.     502.98  E(vib)   ...       0.14 
freq.     525.48  E(vib)   ...       0.13 
freq.     539.57  E(vib)   ...       0.12 
freq.     542.77  E(vib)   ...       0.12 
freq.     548.39  E(vib)   ...       0.12 
freq.     570.25  E(vib)   ...       0.11 
freq.     602.60  E(vib)   ...       0.10 
freq.     606.59  E(vib)   ...       0.10 
freq.     627.16  E(vib)   ...       0.09 
freq.     629.11  E(vib)   ...       0.09 
freq.     645.21  E(vib)   ...       0.09 
freq.     653.62  E(vib)   ...       0.08 
freq.     704.59  E(vib)   ...       0.07 
freq.     729.66  E(vib)   ...       0.06 
freq.     737.60  E(vib)   ...       0.06 
freq.     751.33  E(vib)   ...       0.06 
freq.     764.19  E(vib)   ...       0.06 
freq.     767.36  E(vib)   ...       0.06 
freq.     812.75  E(vib)   ...       0.05 
freq.     833.20  E(vib)   ...       0.04 
freq.     857.59  E(vib)   ...       0.04 
freq.     862.42  E(vib)   ...       0.04 
freq.     866.38  E(vib)   ...       0.04 
freq.     874.28  E(vib)   ...       0.04 
freq.     890.71  E(vib)   ...       0.04 
freq.     913.04  E(vib)   ...       0.03 
freq.     932.06  E(vib)   ...       0.03 
freq.     947.68  E(vib)   ...       0.03 
freq.     961.68  E(vib)   ...       0.03 
freq.     983.54  E(vib)   ...       0.02 
freq.     985.53  E(vib)   ...       0.02 
freq.     991.82  E(vib)   ...       0.02 
freq.     994.25  E(vib)   ...       0.02 
freq.     995.21  E(vib)   ...       0.02 
freq.     999.04  E(vib)   ...       0.02 
freq.    1011.25  E(vib)   ...       0.02 
freq.    1013.81  E(vib)   ...       0.02 
freq.    1019.80  E(vib)   ...       0.02 
freq.    1025.59  E(vib)   ...       0.02 
freq.    1036.59  E(vib)   ...       0.02 
freq.    1041.41  E(vib)   ...       0.02 
freq.    1052.57  E(vib)   ...       0.02 
freq.    1067.71  E(vib)   ...       0.02 
freq.    1108.93  E(vib)   ...       0.02 
freq.    1125.92  E(vib)   ...       0.01 
freq.    1127.60  E(vib)   ...       0.01 
freq.    1136.12  E(vib)   ...       0.01 
freq.    1141.71  E(vib)   ...       0.01 
freq.    1145.18  E(vib)   ...       0.01 
freq.    1146.34  E(vib)   ...       0.01 
freq.    1154.60  E(vib)   ...       0.01 
freq.    1180.59  E(vib)   ...       0.01 
freq.    1213.00  E(vib)   ...       0.01 
freq.    1223.18  E(vib)   ...       0.01 
freq.    1234.25  E(vib)   ...       0.01 
freq.    1262.01  E(vib)   ...       0.01 
freq.    1271.14  E(vib)   ...       0.01 
freq.    1274.90  E(vib)   ...       0.01 
freq.    1279.96  E(vib)   ...       0.01 
freq.    1294.80  E(vib)   ...       0.01 
freq.    1301.67  E(vib)   ...       0.01 
freq.    1328.64  E(vib)   ...       0.01 
freq.    1333.60  E(vib)   ...       0.01 
freq.    1342.21  E(vib)   ...       0.01 
freq.    1380.25  E(vib)   ...       0.01 
freq.    1387.51  E(vib)   ...       0.00 
freq.    1389.76  E(vib)   ...       0.00 
freq.    1442.44  E(vib)   ...       0.00 
freq.    1444.55  E(vib)   ...       0.00 
freq.    1471.49  E(vib)   ...       0.00 
freq.    1472.87  E(vib)   ...       0.00 
freq.    1478.32  E(vib)   ...       0.00 
freq.    1479.19  E(vib)   ...       0.00 
freq.    1502.50  E(vib)   ...       0.00 
freq.    1537.41  E(vib)   ...       0.00 
freq.    1548.49  E(vib)   ...       0.00 
freq.    1623.54  E(vib)   ...       0.00 
freq.    1625.93  E(vib)   ...       0.00 
freq.    1659.81  E(vib)   ...       0.00 
freq.    1666.67  E(vib)   ...       0.00 
freq.    1669.13  E(vib)   ...       0.00 
freq.    1719.07  E(vib)   ...       0.00 
freq.    1824.31  E(vib)   ...       0.00 
freq.    1827.93  E(vib)   ...       0.00 
freq.    3084.90  E(vib)   ...       0.00 
freq.    3085.61  E(vib)   ...       0.00 
freq.    3099.01  E(vib)   ...       0.00 
freq.    3164.50  E(vib)   ...       0.00 
freq.    3166.47  E(vib)   ...       0.00 
freq.    3169.54  E(vib)   ...       0.00 
freq.    3170.41  E(vib)   ...       0.00 
freq.    3170.77  E(vib)   ...       0.00 
freq.    3190.10  E(vib)   ...       0.00 
freq.    3190.57  E(vib)   ...       0.00 
freq.    3208.63  E(vib)   ...       0.00 
freq.    3213.10  E(vib)   ...       0.00 
freq.    3219.02  E(vib)   ...       0.00 
freq.    3220.79  E(vib)   ...       0.00 
freq.    3226.00  E(vib)   ...       0.00 
freq.    3232.92  E(vib)   ...       0.00 
freq.    3235.60  E(vib)   ...       0.00 
freq.    3237.61  E(vib)   ...       0.00 
freq.    3241.01  E(vib)   ...       0.00 
freq.    3266.12  E(vib)   ...       0.00 

------------
INNER ENERGY
------------

The inner energy is: U= E(el) + E(ZPE) + E(vib) + E(rot) + E(trans)
    E(el)   - is the total energy from the electronic structure calculation
              = E(kin-el) + E(nuc-el) + E(el-el) + E(nuc-nuc)
    E(ZPE)  - the the zero temperature vibrational energy from the frequency calculation
    E(vib)  - the the finite temperature correction to E(ZPE) due to population
              of excited vibrational states
    E(rot)  - is the rotational thermal energy
    E(trans)- is the translational thermal energy

Summary of contributions to the inner energy U:
Electronic energy                ...  -1835.27918242 Eh
Zero point energy                ...      0.37024440 Eh     232.33 kcal/mol
Thermal vibrational correction   ...      0.02046748 Eh      12.84 kcal/mol
Thermal rotational correction    ...      0.00141627 Eh       0.89 kcal/mol
Thermal translational correction ...      0.00141627 Eh       0.89 kcal/mol
-----------------------------------------------------------------------
Total thermal energy                  -1834.88563800 Eh


Summary of corrections to the electronic energy:
(perhaps to be used in another calculation)
Total thermal correction                  0.02330002 Eh      14.62 kcal/mol
Non-thermal (ZPE) correction              0.37024440 Eh     232.33 kcal/mol
-----------------------------------------------------------------------
Total correction                          0.39354442 Eh     246.95 kcal/mol


--------
ENTHALPY
--------

The enthalpy is H = U + kB*T
                kB is Boltzmann's constant
Total free energy                 ...  -1834.88563800 Eh 
Thermal Enthalpy correction       ...      0.00094421 Eh       0.59 kcal/mol
-----------------------------------------------------------------------
Total Enthalpy                    ...  -1834.88469379 Eh


Note: Only C1 symmetry has been detected, increase convergence thresholds 
      if your molecule has a higher symmetry. Symmetry factor of 1.0 is   
      used for the rotational entropy correction. 
 

Note: Rotational entropy computed according to Herzberg 
Infrared and Raman Spectra, Chapter V,1, Van Nostrand Reinhold, 1945 
Point Group:  C1, Symmetry Number:   1  
Rotational constants in cm-1:     0.006247     0.003254     0.002244 

Vibrational entropy computed according to the QRRHO of S. Grimme
Chem.Eur.J. 2012 18 9955


-------
ENTROPY
-------

The entropy contributions are T*S = T*(S(el)+S(vib)+S(rot)+S(trans))
     S(el)   - electronic entropy
     S(vib)  - vibrational entropy
     S(rot)  - rotational entropy
     S(trans)- translational entropy
The entropies will be listed as multiplied by the temperature to get
units of energy

Electronic entropy                ...      0.00000000 Eh      0.00 kcal/mol
Vibrational entropy               ...      0.03648694 Eh     22.90 kcal/mol
Rotational entropy                ...      0.01749045 Eh     10.98 kcal/mol
Translational entropy             ...      0.02080792 Eh     13.06 kcal/mol
-----------------------------------------------------------------------
Final entropy term                ...      0.07478531 Eh     46.93 kcal/mol

In case the symmetry of your molecule has not been determined correctly
or in case you have a reason to use a different symmetry number we print 
out the resulting rotational entropy values for sn=1,12 :
 --------------------------------------------------------
|  sn= 1 | S(rot)=       0.01749045 Eh     10.98 kcal/mol|
|  sn= 2 | S(rot)=       0.01683599 Eh     10.56 kcal/mol|
|  sn= 3 | S(rot)=       0.01645316 Eh     10.32 kcal/mol|
|  sn= 4 | S(rot)=       0.01618154 Eh     10.15 kcal/mol|
|  sn= 5 | S(rot)=       0.01597085 Eh     10.02 kcal/mol|
|  sn= 6 | S(rot)=       0.01579870 Eh      9.91 kcal/mol|
|  sn= 7 | S(rot)=       0.01565316 Eh      9.82 kcal/mol|
|  sn= 8 | S(rot)=       0.01552708 Eh      9.74 kcal/mol|
|  sn= 9 | S(rot)=       0.01541587 Eh      9.67 kcal/mol|
|  sn=10 | S(rot)=       0.01531639 Eh      9.61 kcal/mol|
|  sn=11 | S(rot)=       0.01522640 Eh      9.55 kcal/mol|
|  sn=12 | S(rot)=       0.01514425 Eh      9.50 kcal/mol|
 --------------------------------------------------------


-------------------
GIBBS FREE ENERGY
-------------------

The Gibbs free energy is G = H - T*S

Total enthalpy                    ...  -1834.88469379 Eh 
Total entropy correction          ...     -0.07478531 Eh    -46.93 kcal/mol
-----------------------------------------------------------------------
Final Gibbs free energy         ...  -1834.95947910 Eh

For completeness - the Gibbs free energy minus the electronic energy
G-E(el)                           ...      0.31970332 Eh    200.62 kcal/mol


Timings for individual modules:

Sum of individual times         ...    69451.150 sec (=1157.519 min)
GTO integral calculation        ...       95.069 sec (=   1.584 min)   0.1 %
SCF iterations                  ...    37448.646 sec (= 624.144 min)  53.9 %
SCF Gradient evaluation         ...     9247.979 sec (= 154.133 min)  13.3 %
Geometry relaxation             ...        7.976 sec (=   0.133 min)   0.0 %
Analytical frequency calculation...    22651.480 sec (= 377.525 min)  32.6 %
                             ****ORCA TERMINATED NORMALLY****
TOTAL RUN TIME: 0 days 19 hours 20 minutes 17 seconds 94 msec
