

     ************************************************************************
     *************** Dalton - An Electronic Structure Program ***************
     ************************************************************************

    This is output from DALTON release Dalton2021.alpha (2020)
         ( Web site: http://daltonprogram.org )

   ----------------------------------------------------------------------------

    NOTE:
     
    Dalton is an experimental code for the evaluation of molecular
    properties using (MC)SCF, DFT, CI, and CC wave functions.
    The authors accept no responsibility for the performance of
    the code or for the correctness of the results.
     
    The code (in whole or part) is provided under a licence and
    is not to be reproduced for further distribution without
    the written permission of the authors or their representatives.
     
    See the home page "http://daltonprogram.org" for further information.
     
    If results obtained with this code are published,
    the appropriate citations would be both of:
     
       K. Aidas, C. Angeli, K. L. Bak, V. Bakken, R. Bast,
       L. Boman, O. Christiansen, R. Cimiraglia, S. Coriani,
       P. Dahle, E. K. Dalskov, U. Ekstroem,
       T. Enevoldsen, J. J. Eriksen, P. Ettenhuber, B. Fernandez,
       L. Ferrighi, H. Fliegl, L. Frediani, K. Hald, A. Halkier,
       C. Haettig, H. Heiberg, T. Helgaker, A. C. Hennum,
       H. Hettema, E. Hjertenaes, S. Hoest, I.-M. Hoeyvik,
       M. F. Iozzi, B. Jansik, H. J. Aa. Jensen, D. Jonsson,
       P. Joergensen, J. Kauczor, S. Kirpekar,
       T. Kjaergaard, W. Klopper, S. Knecht, R. Kobayashi, H. Koch,
       J. Kongsted, A. Krapp, K. Kristensen, A. Ligabue,
       O. B. Lutnaes, J. I. Melo, K. V. Mikkelsen, R. H. Myhre,
       C. Neiss, C. B. Nielsen, P. Norman, J. Olsen,
       J. M. H. Olsen, A. Osted, M. J. Packer, F. Pawlowski,
       T. B. Pedersen, P. F. Provasi, S. Reine, Z. Rinkevicius,
       T. A. Ruden, K. Ruud, V. Rybkin, P. Salek, C. C. M. Samson,
       A. Sanchez de Meras, T. Saue, S. P. A. Sauer,
       B. Schimmelpfennig, K. Sneskov, A. H. Steindal,
       K. O. Sylvester-Hvid, P. R. Taylor, A. M. Teale,
       E. I. Tellgren, D. P. Tew, A. J. Thorvaldsen, L. Thoegersen,
       O. Vahtras, M. A. Watson, D. J. D. Wilson, M. Ziolkowski
       and H. Agren,
       "The Dalton quantum chemistry program system",
       WIREs Comput. Mol. Sci. 2014, 4:269–284 (doi: 10.1002/wcms.1172)
     
    and
     
       Dalton, a molecular electronic structure program,
       Release Dalton2021.alpha (2020), see http://daltonprogram.org
   ----------------------------------------------------------------------------

    Authors in alphabetical order (Major contribution(s) in parenthesis):

  Kestutis Aidas,           Vilnius University,           Lithuania   (QM/MM)
  Celestino Angeli,         University of Ferrara,        Italy       (NEVPT2)
  Keld L. Bak,              UNI-C,                        Denmark     (AOSOPPA, non-adiabatic coupling, magnetic properties)
  Vebjoern Bakken,          University of Oslo,           Norway      (DALTON; geometry optimizer, symmetry detection)
  Radovan Bast,             UiT The Arctic U. of Norway,  Norway      (DALTON installation and execution frameworks)
  Pablo Baudin,             University of Valencia,       Spain       (Cholesky excitation energies)
  Linus Boman,              NTNU,                         Norway      (Cholesky decomposition and subsystems)
  Bruno N. Cabral Tenorio,  Technical Univ. of Denmark,   Denmark     (Lanczos-based CC methods)
  Ove Christiansen,         Aarhus University,            Denmark     (CC module)
  Renzo Cimiraglia,         University of Ferrara,        Italy       (NEVPT2)
  Sonia Coriani,            Technical Univ. of Denmark,   Denmark     (CC and RESPONS modules)
  Janusz Cukras,            University of Warsaw,         Poland      (MChD in RESPONS)
  Paal Dahle,               University of Oslo,           Norway      (Parallelization)
  Erik K. Dalskov,          UNI-C,                        Denmark     (SOPPA)
  Thomas Enevoldsen,        Univ. of Southern Denmark,    Denmark     (SOPPA)
  Janus J. Eriksen,         Aarhus University,            Denmark     (Polarizable embedding, TDA)
  Rasmus Faber,             Technical Univ. of Denmark,   Denmark     (Vib.avg. NMR w. SOPPA, parallel AO-SOPPA, CVS-CC and EOMCC)
  Tobias Fahleson,          KTH Stockholm,                Sweden      (Damped cubic response)
  Berta Fernandez,          U. of Santiago de Compostela, Spain       (Doublet spin, ESR in RESPONS)
  Lara Ferrighi,            Aarhus University,            Denmark     (PCM Cubic response)
  Heike Fliegl,             University of Oslo,           Norway      (CCSD(R12))
  Luca Frediani,            UiT The Arctic U. of Norway,  Norway      (PCM)
  Emmanuel Fromager,        Univ. Strasbourg,             France      (MC-srDFT)
  Bin Gao,                  UiT The Arctic U. of Norway,  Norway      (Gen1Int library)
  Andre S. P. Gomes,        CNRS/Universite de Lille,     France      (Frozen density embedding)
  Christof Haettig,         Ruhr-University Bochum,       Germany     (CC module)
  Kasper Hald,              Aarhus University,            Denmark     (CC module)
  Asger Halkier,            Aarhus University,            Denmark     (CC module)
  Frederik Beyer Hansen,    University of Copenhagen,     Denmark     (Parallel AO-SOPPA)
  Erik D. Hedegaard,        Univ. of Southern Denmark,    Denmark     (Polarizable embedding, QM/MM, and MC-srDFT)
  Hanne Heiberg,            University of Oslo,           Norway      (Geometry analysis, selected one-electron integrals)
  Trygve Helgaker,          University of Oslo,           Norway      (DALTON; ABACUS, ERI, DFT modules, London, and much more)
  Alf Christian Hennum,     University of Oslo,           Norway      (Parity violation)
  Hinne Hettema,            University of Auckland,       New Zealand (Quadratic response in RESPONS; SIRIUS supersymmetry)
  Eirik Hjertenaes,         NTNU,                         Norway      (Cholesky decomposition)
  Pi A. B. Haase,           University of Copenhagen,     Denmark     (Triplet AO-SOPPA)
  Maria Francesca Iozzi,    University of Oslo,           Norway      (RPA)
  Christoph Jacob           TU Braunschweig               Germany     (Frozen density embedding)
  Brano Jansik              Technical Univ. of Ostrava    Czech Rep.  (DFT cubic response)
  Hans Joergen Aa. Jensen,  Univ. of Southern Denmark,    Denmark     (DALTON; SIRIUS, RESPONS, ABACUS, MC-srDFT, and much more)
  Dan Jonsson,              UiT The Arctic U. of Norway,  Norway      (Cubic response in RESPONS module)
  Poul Joergensen,          Aarhus University,            Denmark     (RESPONS, ABACUS, and CC modules)
  Maciej Kaminski,          University of Warsaw,         Poland      (CPPh in RESPONS)
  Joanna Kauczor,           Linkoeping University,        Sweden      (Complex polarization propagator (CPP) module)
  Sheela Kirpekar,          Univ. of Southern Denmark,    Denmark     (Mass-velocity & Darwin integrals)
  Erik Kjellgren,           Univ. of Southern Denmark,    Denmark     (MC-srDFT)
  Wim Klopper,              KIT Karlsruhe,                Germany     (R12 code in CC, SIRIUS, and ABACUS modules)
  Stefan Knecht,            ETH Zurich,                   Switzerland (Parallel CI and MCSCF, MC-srDFT)
  Rika Kobayashi,           Australian National Univ.,    Australia   (DIIS in CC, London in MCSCF)
  Henrik Koch,              NTNU,                         Norway      (CC module, Cholesky decomposition)
  Jacob Kongsted,           Univ. of Southern Denmark,    Denmark     (Polarizable embedding, polarizable density embedding, QM/MM)
  Andrea Ligabue,           University of Modena,         Italy       (CTOCD, AOSOPPA)
  Nanna H. List             Univ. of Southern Denmark,    Denmark     (Polarizable embedding)
  Ola B. Lutnaes,           University of Oslo,           Norway      (DFT Hessian)
  Juan I. Melo,             University of Buenos Aires,   Argentina   (LRESC, Relativistic Effects on NMR Shieldings)
  Kurt V. Mikkelsen,        University of Copenhagen,     Denmark     (MC-SCRF and QM/MM)
  Rolf H. Myhre,            NTNU,                         Norway      (Subsystems and CC3)
  Christian Neiss,          Univ. Erlangen-Nuernberg,     Germany     (CCSD(R12))
  Christian B. Nielsen,     University of Copenhagen,     Denmark     (QM/MM)
  Patrick Norman,           KTH Stockholm,                Sweden      (Cubic response and complex frequency response in RESPONS)
  Jeppe Olsen,              Aarhus University,            Denmark     (SIRIUS CI/density modules)
  Jogvan Magnus H. Olsen,   Aarhus University,            Denmark     (Polarizable embedding and polarizable density embedding)
  Anders Osted,             Copenhagen University,        Denmark     (QM/MM)
  Martin J. Packer,         University of Sheffield,      UK          (SOPPA)
  Filip Pawlowski,          Kazimierz Wielki University,  Poland      (CC3)
  Morten N. Pedersen,       Univ. of Southern Denmark,    Denmark     (Polarizable embedding)
  Thomas B. Pedersen,       University of Oslo,           Norway      (Cholesky decomposition)
  Patricio F. Provasi,      University of Northeastern,   Argentina   (Analysis of coupling constants in localized orbitals)
  Peter Reinholdt,          Univ. of Southern Denmark,    Denmark     (Polarizable embedding and polarizable density embedding)
  Zilvinas Rinkevicius,     KTH Stockholm,                Sweden      (open-shell DFT, ESR)
  Elias Rudberg,            KTH Stockholm,                Sweden      (DFT grid and basis info)
  Torgeir A. Ruden,         University of Oslo,           Norway      (Numerical derivatives in ABACUS)
  Kenneth Ruud,             UiT The Arctic U. of Norway,  Norway      (DALTON; ABACUS magnetic properties and much more)
  Pawel Salek,              KTH Stockholm,                Sweden      (DALTON; DFT code)
  Claire C. M. Samson       University of Karlsruhe       Germany     (Boys localization, r12 integrals in ERI)
  Alfredo Sanchez de Meras, University of Valencia,       Spain       (CC module, Cholesky decomposition)
  Trond Saue,               Paul Sabatier University,     France      (direct Fock matrix construction)
  Stephan P. A. Sauer,      University of Copenhagen,     Denmark     (SOPPA(CCSD), SOPPA prop., AOSOPPA, vibrational g-factors)
  Bernd Schimmelpfennig,    Forschungszentrum Karlsruhe,  Germany     (AMFI module)
  Anna K. Schnack-Petersen, University of Copenhagen,     Denmark     (RPA(D) and HRPA(D) properties in AOSOPPA)
  Kristian Sneskov,         Aarhus University,            Denmark     (Polarizable embedding, QM/MM)
  Arnfinn H. Steindal,      UiT The Arctic U. of Norway,  Norway      (parallel QM/MM, polarizable embedding)
  Casper Steinmann,         Aalborg University,           Denmark     (QFIT, polarizable embedding)
  K. O. Sylvester-Hvid,     University of Copenhagen,     Denmark     (MC-SCRF)
  Peter R. Taylor,          VLSCI/Univ. of Melbourne,     Australia   (Symmetry handling ABACUS, integral transformation)
  Andrew M. Teale,          University of Nottingham,     England     (DFT-AC, DFT-D)
  David P. Tew,             University of Bristol,        England     (CCSD(R12))
  Julien Toulouse,          Sorbonne Univ.,               France      (MC-srDFT)
  Olav Vahtras,             KTH Stockholm,                Sweden      (Triplet response, spin-orbit, ESR, TDDFT, open-shell DFT)
  Lucas Visscher,           Vrije Universiteit Amsterdam, Netherlands (Frozen density embedding)
  David J. Wilson,          La Trobe University,          Australia   (DFT Hessian and DFT magnetizabilities)
  Hans Agren,               KTH Stockholm,                Sweden      (SIRIUS module, RESPONS, MC-SCRF solvation)
 --------------------------------------------------------------------------------

     Date and time (Linux)  : Thu Sep 30 15:28:15 2021
     Host name              : node364.cluster                         

 * Work memory size             :  2048000000 = 15.259 gigabytes.

 * Directories for basis set searches:
   1) /groups/kemi/theob/compchem/gold_new
   2) /lustre/hpc/kemi/andreasb/Applications/Dalton2020/build_par/basis


Compilation information
-----------------------

 Who compiled             | andreasb
 Host                     | fend04.cluster
 System                   | Linux-3.10.0-1160.11.1.el7.x86_64
 CMake generator          | Unix Makefiles
 Processor                | x86_64
 64-bit integers          | ON
 MPI                      | ON
 Fortran compiler         | /software/kemi/openmpi-1.6.5/bin/mpif90
 Fortran compiler version | GNU Fortran (GCC) 4.8.5 20150623 (Red Hat 4.8.5-44
                          | )
 C compiler               | /software/kemi/openmpi-1.6.5/bin/mpicc
 C compiler version       | gcc (GCC) 4.8.5 20150623 (Red Hat 4.8.5-44)
 C++ compiler             | /software/kemi/openmpi-1.6.5/bin/mpicxx
 C++ compiler version     | unknown
 BLAS                     | /software/local/intel/parallel_studio_xe_2020_upd4
                          | /compilers_and_libraries_2020.4.304/linux/mkl/lib/
                          | intel64/libmkl_intel_ilp64.so;/software/local/inte
                          | l/parallel_studio_xe_2020_upd4/compilers_and_libra
                          | ries_2020.4.304/linux/mkl/lib/intel64/libmkl_seque
                          | ntial.so;/software/local/intel/parallel_studio_xe_
                          | 2020_upd4/compilers_and_libraries_2020.4.304/linux
                          | /mkl/lib/intel64/libmkl_core.so;/usr/lib64/libpthr
                          | ead.so;/usr/lib64/libm.so
 LAPACK                   | /software/local/intel/parallel_studio_xe_2020_upd4
                          | /compilers_and_libraries_2020.4.304/linux/mkl/lib/
                          | intel64/libmkl_lapack95_ilp64.a;/software/local/in
                          | tel/parallel_studio_xe_2020_upd4/compilers_and_lib
                          | raries_2020.4.304/linux/mkl/lib/intel64/libmkl_int
                          | el_ilp64.so
 Static linking           | OFF
 Last Git revision        | 937da23ec543a1764a017791d06e1e795cffb166
 Git branch               | master
 Configuration time       | 2021-09-17 12:43:06.028815

 * MPI parallel run using 8 processes.


   Content of the .dal input file
 ----------------------------------

**DALTON
.DIRECT
.RUN RESPONSE
.RUN PROPERTIES
*QMMM
.QMMM
.MMPROP
**INTEGRALS
.DIPLEN
**WAVE FUNCTIONS
.DFT
CAMB3LYP
*SCF INP
.MAX DIIS
300
.PRINT
2
.THRESH
1.0D-06
**RESPONSE
*LINEAR
.DIPLEN
.FREQUE
 1
0.0
**PROPERTIES
.EXCITA
*EXCITA
.DIPSTR
.NEXCIT
15
**END OF DALTON INPUT


   Content of the .mol file
 ----------------------------

ATOMBASIS
./NBD_c0.xyz
Hej Magnus - The distance between NPs is 19.5010 AA
Atomtypes=4 Charge=0 NoSymmetry Angstrom
  6.0000     23 Bas=pc-1 Aux=pc-1-RI
C   -24.126078664        -6.715299136        -2.150618657
C   -22.832781071        -6.424168972        -2.098874649
C   -22.575532223        -5.330337429        -3.144078936
C   -23.324393425        -4.074545184        -2.653570340
C   -24.632954510        -4.361246292        -2.717223554
C   -24.745559094        -5.812774286        -3.224876598
C   -22.622379256        -2.906097892        -2.110709022
C   -23.052157177        -2.273906877        -0.942457241
C   -22.362285198        -1.187842448        -0.431263488
C   -21.232297244        -0.708151797        -1.085415345
C   -20.794105418        -1.324364678        -2.251288431
C   -21.477210888        -2.420756764        -2.746465601
C   -18.792879999         0.000000000         0.000000000
C   -17.905077692         1.001326030         0.697990968
C   -25.803658183        -3.563175272        -2.353861575
C   -26.930975193        -4.181802015        -1.812677453
C   -28.043881543        -3.440244687        -1.448506544
C   -28.056456682        -2.067126580        -1.650527757
C   -26.951533291        -1.439612930        -2.219881511
C   -25.837427951        -2.180472284        -2.559921991
C   -28.817588087         0.000000000         0.000000000
C   -29.864911704         0.922844491         0.573596210
C   -23.571263585        -5.796633896        -4.231264874
  16.0000     2 Bas=pc-1 Aux=pc-1-RI
S   -20.386993675         0.702706755        -0.434902295
S   -29.495208059        -1.140720570        -1.209556839
  8.0000     2 Bas=pc-1 Aux=pc-1-RI
O   -18.476968701        -1.129826686        -0.224097480
O   -27.663576104         0.036996544         0.307205991
  1.0000     20 Bas=pc-1 Aux=pc-1-RI
H   -24.679862181        -7.400827816        -1.527956329
H   -22.086427621        -6.813255347        -1.424085647
H   -21.537946641        -5.175930289        -3.421892224
H   -25.726243854        -6.095862009        -3.594713197
H   -23.925923552        -2.645894464        -0.425106154
H   -22.693773330        -0.715148650         0.482974219
H   -19.918023683        -0.949862721        -2.761261995
H   -21.128712795        -2.898296273        -3.652577214
H   -18.247689374         2.022911821         0.554981904
H   -16.888656836         0.885071258         0.329749098
H   -17.914489790         0.770079444         1.762812941
H   -26.928029398        -5.251946817        -1.651010451
H   -28.901821249        -3.926191823        -1.004174962
H   -26.968543943        -0.372442328        -2.388590784
H   -24.980201845        -1.690053208        -3.000567067
H   -30.869652497         0.662016967         0.252489000
H   -29.632349572         1.937877198         0.254545651
H   -29.796014611         0.883408425         1.658757291
H   -23.339531249        -6.782232178        -4.630284320
H   -23.705332059        -5.068619250        -5.029331291


       *******************************************************************
       *********** Output from DALTON general input processing ***********
       *******************************************************************

 --------------------------------------------------------------------------------
   Overall default print level:    0
   Print level for DALTON.STAT:    1

    Parallel calculation using MPI
    AO-direct calculation (in sections where implemented)
    HERMIT 1- and 2-electron integral sections will be executed
    "Old" integral transformation used (limited to max 255 basis functions)
    Wave function sections will be executed (SIRIUS module)
    Dynamic molecular response properties section will be executed (RESPONSE module)
    Static molecular property section will be executed (ABACUS module)
 --------------------------------------------------------------------------------


 Changes of defaults for *QMMM  :
 --------------------------------

 +------------------+
 |  WORD: | CHANGE: |
 +------------------+
 |   QMMM |       T |
 | MMPROP |       T |
 +------------------+
 


   ****************************************************************************
   *************** Output of molecule and basis set information ***************
   ****************************************************************************


    The two title cards from your ".mol" input:
    ------------------------------------------------------------------------
 1: ./NBD_c0.xyz                                                            
 2: Hej Magnus - The distance between NPs is 19.5010 AA                     
    ------------------------------------------------------------------------

  Coordinates are entered in Angstrom and converted to atomic units.
          - Conversion factor : 1 bohr = 0.52917721 A

  Atomic type no.    1
  --------------------
  Nuclear charge:   6.00000
  Number of symmetry independent centers:   23
  Number of basis sets to read;    2
  The basis set is "pc-1 Aux=pc-1-RI" from the basis set library.
  Basis set file used for this atomic type with Z =   6 :
     "/lustre/hpc/kemi/andreasb/Applications/Dalton2020/build_par/basis/pc-1"

  Atomic type no.    2
  --------------------
  Nuclear charge:  16.00000
  Number of symmetry independent centers:    2
  Number of basis sets to read;    2
  The basis set is "pc-1 Aux=pc-1-RI" from the basis set library.
  Basis set file used for this atomic type with Z =  16 :
     "/lustre/hpc/kemi/andreasb/Applications/Dalton2020/build_par/basis/pc-1"

  Atomic type no.    3
  --------------------
  Nuclear charge:   8.00000
  Number of symmetry independent centers:    2
  Number of basis sets to read;    2
  The basis set is "pc-1 Aux=pc-1-RI" from the basis set library.
  Basis set file used for this atomic type with Z =   8 :
     "/lustre/hpc/kemi/andreasb/Applications/Dalton2020/build_par/basis/pc-1"

  Atomic type no.    4
  --------------------
  Nuclear charge:   1.00000
  Number of symmetry independent centers:   20
  Number of basis sets to read;    2
  The basis set is "pc-1 Aux=pc-1-RI" from the basis set library.
  Basis set file used for this atomic type with Z =   1 :
     "/lustre/hpc/kemi/andreasb/Applications/Dalton2020/build_par/basis/pc-1"


                         SYMGRP: Point group information
                         -------------------------------

@    Point group: C1 


                                 Isotopic Masses
                                 ---------------

                           C          12.000000
                           C          12.000000
                           C          12.000000
                           C          12.000000
                           C          12.000000
                           C          12.000000
                           C          12.000000
                           C          12.000000
                           C          12.000000
                           C          12.000000
                           C          12.000000
                           C          12.000000
                           C          12.000000
                           C          12.000000
                           C          12.000000
                           C          12.000000
                           C          12.000000
                           C          12.000000
                           C          12.000000
                           C          12.000000
                           C          12.000000
                           C          12.000000
                           C          12.000000
                           S          31.972072
                           S          31.972072
                           O          15.994915
                           O          15.994915
                           H           1.007825
                           H           1.007825
                           H           1.007825
                           H           1.007825
                           H           1.007825
                           H           1.007825
                           H           1.007825
                           H           1.007825
                           H           1.007825
                           H           1.007825
                           H           1.007825
                           H           1.007825
                           H           1.007825
                           H           1.007825
                           H           1.007825
                           H           1.007825
                           H           1.007825
                           H           1.007825
                           H           1.007825
                           H           1.007825

                       Total mass:   392.090474 amu
                       Natural abundance:  69.463 %

 Center-of-mass coordinates (a.u.):  -45.635591   -4.105843   -2.734815
 Center-of-mass coordinates (Angs):  -24.149315   -2.172719   -1.447202


  Atoms and basis sets
  --------------------

  Number of atom types :    4
  Total number of atoms:   47

  label    atoms   charge   prim   cont     basis
  ----------------------------------------------------------------------
  C          23    6.0000    24    14      [7s4p1d|3s2p1d]                                    
  S           2   16.0000    40    18      [11s8p1d|4s3p1d]                                   
  O           2    8.0000    24    14      [7s4p1d|3s2p1d]                                    
  H          20    1.0000     7     5      [4s1p|2s1p]                                        
  ----------------------------------------------------------------------
  total:     47  206.0000   820   486
  ----------------------------------------------------------------------
  Spherical harmonic basis used.

  Threshold for neglecting AO integrals:  1.00D-12


  Cartesian Coordinates (a.u.)
  ----------------------------

  Total number of coordinates:  141
  C       :     1  x -45.5916811450    2  y -12.6900762144    3  z  -4.0640802610
  C       :     4  x -43.1477028961    5  y -12.1399199378    6  z  -3.9662982573
  C       :     7  x -42.6615730274    8  y -10.0728778946    9  z  -5.9414481044
  C       :    10  x -44.0767156049   11  y  -7.6997744817   12  z  -5.0145211960
  C       :    13  x -46.5495376733   14  y  -8.2415610555   15  z  -5.1348083374
  C       :    16  x -46.7623294975   17  y -10.9845514269   18  z  -6.0941335571
  C       :    19  x -42.7501010896   20  y  -5.4917291083   21  z  -3.9886619811
  C       :    22  x -43.5622636548   23  y  -4.2970612313   24  z  -1.7809860700
  C       :    25  x -42.2585945532   26  y  -2.2446969064   27  z  -0.8149698800
  C       :    28  x -40.1232267956   29  y  -1.3382129513   30  z  -2.0511377339
  C       :    31  x -39.2951642543   32  y  -2.5026865310   33  z  -4.2543185630
  C       :    34  x -40.5860465071   35  y  -4.5745672992   36  z  -5.1900677976
  C       :    37  x -35.5133962980   38  y   0.0000000000   39  z   0.0000000000
  C       :    40  x -33.8356930846   41  y   1.8922319585   42  z   1.3190117672
  C       :    43  x -48.7618469888   44  y  -6.7334253994   45  z  -4.4481537129
  C       :    46  x -50.8921673938   47  y  -7.9024605173   48  z  -3.4254639391
  C       :    49  x -52.9952555980   50  y  -6.5011202614   51  z  -2.7372806584
  C       :    52  x -53.0190191667   53  y  -3.9063031019   54  z  -3.1190454224
  C       :    55  x -50.9310165686   56  y  -2.7204741637   57  z  -4.1949680857
  C       :    58  x -48.8256626016   59  y  -4.1204954399   60  z  -4.8375514643
  C       :    61  x -54.4573490673   62  y   0.0000000000   63  z   0.0000000000
  C       :    64  x -56.4365038677   65  y   1.7439233439   66  z   1.0839397432
  C       :    67  x -44.5432325957   68  y -10.9540505103   69  z  -7.9959317742
  S       :    70  x -38.5258345577   71  y   1.3279233131   72  z  -0.8218462287
  S       :    73  x -55.7378652312   74  y  -2.1556494624   75  z  -2.2857311583
  O       :    76  x -34.9164104650   77  y  -2.1350630052   78  z  -0.4234828625
  O       :    79  x -52.2765824745   80  y   0.0699133357   81  z   0.5805351869
  H       :    82  x -46.6381803247   83  y -13.9855376705   84  z  -2.8874189928
  H       :    85  x -41.7372992832   86  y -12.8751866255   87  z  -2.6911318514
  H       :    88  x -40.7008204462   89  y  -9.7810906883   90  z  -6.4664391326
  H       :    91  x -48.6155551089   92  y -11.5195096928   93  z  -6.7930234402
  H       :    94  x -45.2134428008   95  y  -5.0000158926   96  z  -0.8033342051
  H       :    97  x -42.8850163364   98  y  -1.3514350872   99  z   0.9126889993
  H       :   100  x -37.6396097120  101  y  -1.7949803990  102  z  -5.2180289299
  H       :   103  x -39.9274805562  104  y  -5.4769861851  105  z  -6.9023705849
  H       :   106  x -34.4831353308  107  y   3.8227493167  108  z   1.0487638029
  H       :   109  x -31.9149360390  110  y   1.6725422787  111  z   0.6231354852
  H       :   112  x -33.8534793721  113  y   1.4552392436  114  z   3.3312336681
  H       :   115  x -50.8866006480  116  y  -9.9247411072  117  z  -3.1199575819
  H       :   118  x -54.6165266741  119  y  -7.4194272597  120  z  -1.8976156598
  H       :   121  x -50.9631620421  122  y  -0.7038139973  123  z  -4.5137824064
  H       :   124  x -47.2057400341  125  y  -3.1937376998  126  z  -5.6702499763
  H       :   127  x -58.3351887931  128  y   1.2510307577  129  z   0.4771350596
  H       :   130  x -55.9970251312  131  y   3.6620571681  132  z   0.4810215667
  H       :   133  x -56.3063072311  134  y   1.6693999798  135  z   3.1345969878
  H       :   136  x -44.1053219463  137  y -12.8165613325  138  z  -8.7499692457
  H       :   139  x -44.7965852935  140  y  -9.5783022144  141  z  -9.5040587319

  Max    interatomic separation is   13.9830 Angstrom (   26.4240 Bohr)
  between atoms   43 and   37, "H     " and "H     ".

  Min HX interatomic separation is    1.0788 Angstrom (    2.0386 Bohr)

  Min YX interatomic separation is    1.1944 Angstrom (    2.2570 Bohr)


  Bond distances (Angstrom):
  --------------------------

                  atom 1     atom 2       distance
                  ------     ------       --------
  bond distance:  C          C            1.326670
  bond distance:  C          C            1.534632
  bond distance:  C          C            1.542208
  bond distance:  C          C            1.341112
  bond distance:  C          C            1.533733
  bond distance:  C          C            1.541858
  bond distance:  C          C            1.467239
  bond distance:  C          C            1.396133
  bond distance:  C          C            1.384478
  bond distance:  C          C            1.391003
  bond distance:  C          C            1.389601
  bond distance:  C          C            1.396837
  bond distance:  C          C            1.383441
  bond distance:  C          C            1.509317
  bond distance:  C          C            1.462702
  bond distance:  C          C            1.395143
  bond distance:  C          C            1.386033
  bond distance:  C          C            1.387957
  bond distance:  C          C            1.392405
  bond distance:  C          C            1.398381
  bond distance:  C          C            1.380482
  bond distance:  C          C            1.509153
  bond distance:  C          C            1.546249
  bond distance:  C          C            1.546625
  bond distance:  S          C            1.768680
  bond distance:  S          C            1.795588
  bond distance:  S          C            1.767113
  bond distance:  S          C            1.795394
  bond distance:  O          C            1.194373
  bond distance:  O          C            1.194775
  bond distance:  H          C            1.079043
  bond distance:  H          C            1.078783
  bond distance:  H          C            1.085175
  bond distance:  H          C            1.085661
  bond distance:  H          C            1.081432
  bond distance:  H          C            1.081274
  bond distance:  H          C            1.080668
  bond distance:  H          C            1.081912
  bond distance:  H          C            1.086955
  bond distance:  H          C            1.087303
  bond distance:  H          C            1.089683
  bond distance:  H          C            1.082291
  bond distance:  H          C            1.081497
  bond distance:  H          C            1.080558
  bond distance:  H          C            1.081441
  bond distance:  H          C            1.086575
  bond distance:  H          C            1.089114
  bond distance:  H          C            1.088061
  bond distance:  H          C            1.088265
  bond distance:  H          C            1.088526


  Bond angles (degrees):
  ----------------------

                  atom 1     atom 2     atom 3         angle
                  ------     ------     ------         -----
  bond angle:     C          C          C            106.974
  bond angle:     C          C          H            128.113
  bond angle:     C          C          H            124.802
  bond angle:     C          C          C            107.053
  bond angle:     C          C          H            128.294
  bond angle:     C          C          H            124.550
  bond angle:     C          C          C            106.402
  bond angle:     C          C          C             98.974
  bond angle:     C          C          H            115.853
  bond angle:     C          C          C             99.003
  bond angle:     C          C          H            115.458
  bond angle:     C          C          H            118.596
  bond angle:     C          C          C            106.536
  bond angle:     C          C          C            122.263
  bond angle:     C          C          C            130.893
  bond angle:     C          C          C            106.747
  bond angle:     C          C          C            130.731
  bond angle:     C          C          C            122.479
  bond angle:     C          C          C            107.090
  bond angle:     C          C          C             98.930
  bond angle:     C          C          H            116.744
  bond angle:     C          C          C             98.567
  bond angle:     C          C          H            115.062
  bond angle:     C          C          H            117.834
  bond angle:     C          C          C            121.528
  bond angle:     C          C          C            120.037
  bond angle:     C          C          C            118.417
  bond angle:     C          C          C            120.716
  bond angle:     C          C          H            119.556
  bond angle:     C          C          H            119.723
  bond angle:     C          C          C            120.111
  bond angle:     C          C          H            120.157
  bond angle:     C          C          H            119.730
  bond angle:     C          C          C            119.855
  bond angle:     C          C          S            119.365
  bond angle:     C          C          S            120.771
  bond angle:     C          C          C            119.738
  bond angle:     C          C          H            119.861
  bond angle:     C          C          H            120.400
  bond angle:     C          C          C            121.149
  bond angle:     C          C          H            119.466
  bond angle:     C          C          H            119.375
  bond angle:     C          C          S            111.999
  bond angle:     C          C          O            123.970
  bond angle:     S          C          O            124.027
  bond angle:     C          C          H            112.165
  bond angle:     C          C          H            108.803
  bond angle:     C          C          H            107.820
  bond angle:     H          C          H            110.523
  bond angle:     H          C          H            108.984
  bond angle:     H          C          H            108.441
  bond angle:     C          C          C            120.076
  bond angle:     C          C          C            121.481
  bond angle:     C          C          C            118.430
  bond angle:     C          C          C            120.896
  bond angle:     C          C          H            119.616
  bond angle:     C          C          H            119.469
  bond angle:     C          C          C            119.890
  bond angle:     C          C          H            120.299
  bond angle:     C          C          H            119.811
  bond angle:     C          C          C            119.880
  bond angle:     C          C          S            119.321
  bond angle:     C          C          S            120.788
  bond angle:     C          C          C            119.952
  bond angle:     C          C          H            119.764
  bond angle:     C          C          H            120.283
  bond angle:     C          C          C            120.920
  bond angle:     C          C          H            119.295
  bond angle:     C          C          H            119.783
  bond angle:     C          C          S            112.498
  bond angle:     C          C          O            123.617
  bond angle:     S          C          O            123.879
  bond angle:     C          C          H            112.495
  bond angle:     C          C          H            108.082
  bond angle:     C          C          H            108.238
  bond angle:     H          C          H            109.548
  bond angle:     H          C          H            110.157
  bond angle:     H          C          H            108.205
  bond angle:     C          C          C             91.981
  bond angle:     C          C          H            113.191
  bond angle:     C          C          H            113.149
  bond angle:     C          C          H            113.005
  bond angle:     C          C          H            112.988
  bond angle:     H          C          H            111.292
  bond angle:     C          S          C            101.608
  bond angle:     C          S          C            101.181




 Principal moments of inertia (u*A**2) and principal axes
 --------------------------------------------------------

   IA    2695.700198          0.993060    0.107242    0.048287
   IB    5174.048095         -0.117550    0.891737    0.437020
   IC    7501.768828          0.003808   -0.439663    0.898155


 Rotational constants
 --------------------

               A                   B                   C

            187.4760             97.6757             67.3680 MHz
            0.006254            0.003258            0.002247 cm-1


@  Nuclear repulsion energy : 2550.587292717765 Hartree


                     .---------------------------------------.
                     | Starting in Integral Section (HERMIT) |
                     `---------------------------------------'



 ***************************************************************************************
 ****************** Output from **INTEGRALS input processing (HERMIT) ******************
 ***************************************************************************************



    *************************************************************************
    ****************** Output from HERMIT input processing ******************
    *************************************************************************


 Default print level:        1

 Calculation of one-electron Hamiltonian integrals.

 The following one-electron property integrals are calculated as requested:
          - overlap integrals
          - dipole length integrals

 Center of mass  (bohr):    -45.635591129200     -4.105843224684     -2.734815145954
 Operator center (bohr):      0.000000000000      0.000000000000      0.000000000000
 Gauge origin    (bohr):      0.000000000000      0.000000000000      0.000000000000
 Dipole origin   (bohr):      0.000000000000      0.000000000000      0.000000000000
 
  *********************************** 
  QMMM electrostatic potential: 
  Multipole order                                    0
  Isotropic polarization  
  *********************************** 
 
  ---------------- 
  QMMM information 
  ---------------- 
 
  MM coordinates in au 
  -------------------- 
     1     -4.449882     14.159438    -24.524866
     2     -8.899763      7.866353    -24.524866
     3     -4.449882      9.439626    -27.249851
     4     -4.449882      4.719812    -24.524866
     5      0.000000     11.012897    -24.524866
     6    -13.349645      1.573271    -24.524866
     7     -8.899763      3.146541    -27.249851
     8     -8.899763     -1.573271    -24.524866
     9     -4.449882      0.000000    -27.249851
    10     -4.449882     -4.719812    -24.524866
    11      0.000000      6.293083    -27.249851
    12      0.000000      1.573271    -24.524866
    13    -13.349645     -7.866353    -24.524866
    14     -8.899763     -6.293083    -27.249851
    15     -8.899763    -11.012897    -24.524866
    16     -4.449882     -9.439626    -27.249851
    17     -4.449882    -14.159438    -24.524866
    18      0.000000     -3.146541    -27.249851
    19      0.000000     -7.866353    -24.524866
    20    -17.799529     14.159438    -19.074896
    21     -8.899763     17.305980    -19.074896
    22     -4.449882     18.879250    -21.799881
    23     -4.449882     14.159438    -19.074896
    24      0.000000     20.452521    -19.074896
    25    -17.799529      9.439626    -21.799881
    26    -17.799529      4.719812    -19.074896
    27    -13.349645     11.012897    -19.074896
    28     -8.899763     12.586167    -21.799881
    29     -8.899763      7.866353    -19.074896
    30     -4.449882      9.439626    -21.799881
    31     -4.449882      4.719812    -19.074896
    32      0.000000     15.732709    -21.799881
    33      0.000000     11.012897    -19.074896
    34    -22.249411     -1.573271    -19.074896
    35    -17.799529      0.000000    -21.799881
    36    -17.799529     -4.719812    -19.074896
    37    -13.349645      6.293083    -21.799881
    38    -13.349645      1.573271    -19.074896
    39     -8.899763      3.146541    -21.799881
    40     -8.899763     -1.573271    -19.074896
    41     -4.449882      0.000000    -21.799881
    42     -4.449882     -4.719812    -19.074896
    43      0.000000      6.293083    -21.799881
    44      0.000000      1.573271    -19.074896
    45    -17.799529     -9.439626    -21.799881
    46    -17.799529    -14.159438    -19.074896
    47    -13.349645     -3.146541    -21.799881
    48    -13.349645     -7.866353    -19.074896
    49     -8.899763     -6.293083    -21.799881
    50     -8.899763    -11.012897    -19.074896
    51     -4.449882     -9.439626    -21.799881
    52     -4.449882    -14.159438    -19.074896
    53      0.000000     -3.146541    -21.799881
    54      0.000000     -7.866353    -19.074896
    55    -13.349645    -12.586167    -21.799881
    56    -13.349645    -17.305980    -19.074896
    57     -8.899763    -15.732709    -21.799881
    58     -8.899763    -20.452521    -19.074896
    59     -4.449882    -18.879250    -21.799881
    60      0.000000    -12.586167    -21.799881
    61      0.000000    -17.305980    -19.074896
    62     -4.449882     23.599062    -13.624925
    63    -17.799529     14.159438    -13.624925
    64    -13.349645     20.452521    -13.624925
    65     -8.899763     22.025792    -16.349910
    66     -8.899763     17.305980    -13.624925
    67     -4.449882     18.879250    -16.349910
    68     -4.449882     14.159438    -13.624925
    69      0.000000     20.452521    -13.624925
    70    -22.249411      7.866353    -13.624925
    71    -17.799529      9.439626    -16.349910
    72    -17.799529      4.719812    -13.624925
    73    -13.349645     15.732709    -16.349910
    74    -13.349645     11.012897    -13.624925
    75     -8.899763     12.586167    -16.349910
    76     -8.899763      7.866353    -13.624925
    77     -4.449882      9.439626    -16.349910
    78     -4.449882      4.719812    -13.624925
    79      0.000000     15.732709    -16.349910
    80      0.000000     11.012897    -13.624925
    81    -22.249411      3.146541    -16.349910
    82    -22.249411     -1.573271    -13.624925
    83    -17.799529      0.000000    -16.349910
    84    -17.799529     -4.719812    -13.624925
    85    -13.349645      6.293083    -16.349910
    86    -13.349645      1.573271    -13.624925
    87     -8.899763      3.146541    -16.349910
    88     -8.899763     -1.573271    -13.624925
    89     -4.449882      0.000000    -16.349910
    90     -4.449882     -4.719812    -13.624925
    91      0.000000      6.293083    -16.349910
    92      0.000000      1.573271    -13.624925
    93    -22.249411     -6.293083    -16.349910
    94    -22.249411    -11.012897    -13.624925
    95    -17.799529     -9.439626    -16.349910
    96    -17.799529    -14.159438    -13.624925
    97    -13.349645     -3.146541    -16.349910
    98    -13.349645     -7.866353    -13.624925
    99     -8.899763     -6.293083    -16.349910
   100     -8.899763    -11.012897    -13.624925
   101     -4.449882     -9.439626    -16.349910
   102     -4.449882    -14.159438    -13.624925
   103      0.000000     -3.146541    -16.349910
   104      0.000000     -7.866353    -13.624925
   105    -13.349645    -12.586167    -16.349910
   106    -13.349645    -17.305980    -13.624925
   107     -8.899763    -15.732709    -16.349910
   108     -8.899763    -20.452521    -13.624925
   109     -4.449882    -18.879250    -16.349910
   110     -4.449882    -23.599062    -13.624925
   111      0.000000    -12.586167    -16.349910
   112      0.000000    -17.305980    -13.624925
   113      0.000000    -22.025792    -16.349910
   114     -8.899763     26.745604     -8.174955
   115     -4.449882     23.599062     -8.174955
   116    -22.249411     17.305980     -8.174955
   117    -17.799529     18.879250    -10.899940
   118    -17.799529     14.159438     -8.174955
   119    -13.349645     20.452521     -8.174955
   120     -8.899763     22.025792    -10.899940
   121     -8.899763     17.305980     -8.174955
   122     -4.449882     18.879250    -10.899940
   123     -4.449882     14.159438     -8.174955
   124      0.000000     25.172333    -10.899940
   125      0.000000     20.452521     -8.174955
   126    -22.249411     12.586167    -10.899940
   127    -22.249411      7.866353     -8.174955
   128    -17.799529      9.439626    -10.899940
   129    -17.799529      4.719812     -8.174955
   130    -13.349645     15.732709    -10.899940
   131    -13.349645     11.012897     -8.174955
   132     -8.899763     12.586167    -10.899940
   133     -8.899763      7.866353     -8.174955
   134     -4.449882      9.439626    -10.899940
   135     -4.449882      4.719812     -8.174955
   136      0.000000     15.732709    -10.899940
   137      0.000000     11.012897     -8.174955
   138    -26.699292      6.293083    -10.899940
   139    -26.699292      1.573271     -8.174955
   140    -22.249411      3.146541    -10.899940
   141    -22.249411     -1.573271     -8.174955
   142    -17.799529      0.000000    -10.899940
   143    -17.799529     -4.719812     -8.174955
   144    -13.349645      6.293083    -10.899940
   145    -13.349645      1.573271     -8.174955
   146     -8.899763      3.146541    -10.899940
   147     -8.899763     -1.573271     -8.174955
   148     -4.449882      0.000000    -10.899940
   149     -4.449882     -4.719812     -8.174955
   150      0.000000      6.293083    -10.899940
   151      0.000000      1.573271     -8.174955
   152    -26.699292     -3.146541    -10.899940
   153    -26.699292     -7.866353     -8.174955
   154    -22.249411     -6.293083    -10.899940
   155    -22.249411    -11.012897     -8.174955
   156    -17.799529     -9.439626    -10.899940
   157    -17.799529    -14.159438     -8.174955
   158    -13.349645     -3.146541    -10.899940
   159    -13.349645     -7.866353     -8.174955
   160     -8.899763     -6.293083    -10.899940
   161     -8.899763    -11.012897     -8.174955
   162     -4.449882     -9.439626    -10.899940
   163     -4.449882    -14.159438     -8.174955
   164      0.000000     -3.146541    -10.899940
   165      0.000000     -7.866353     -8.174955
   166    -22.249411    -15.732709    -10.899940
   167    -17.799529    -18.879250    -10.899940
   168    -13.349645    -12.586167    -10.899940
   169    -13.349645    -17.305980     -8.174955
   170     -8.899763    -15.732709    -10.899940
   171     -8.899763    -20.452521     -8.174955
   172     -4.449882    -18.879250    -10.899940
   173     -4.449882    -23.599062     -8.174955
   174      0.000000    -12.586167    -10.899940
   175      0.000000    -17.305980     -8.174955
   176    -13.349645    -22.025792    -10.899940
   177     -8.899763    -25.172333    -10.899940
   178      0.000000    -22.025792    -10.899940
   179      0.000000    -26.745604     -8.174955
   180    -17.799529     23.599062     -2.724985
   181     -8.899763     26.745604     -2.724985
   182     -4.449882     28.318876     -5.449970
   183     -4.449882     23.599062     -2.724985
   184    -22.249411     17.305980     -2.724985
   185    -17.799529     18.879250     -5.449970
   186    -17.799529     14.159438     -2.724985
   187    -13.349645     25.172333     -5.449970
   188    -13.349645     20.452521     -2.724985
   189     -8.899763     22.025792     -5.449970
   190     -8.899763     17.305980     -2.724985
   191     -4.449882     18.879250     -5.449970
   192     -4.449882     14.159438     -2.724985
   193      0.000000     25.172333     -5.449970
   194      0.000000     20.452521     -2.724985
   195    -26.699292     11.012897     -2.724985
   196    -22.249411     12.586167     -5.449970
   197    -22.249411      7.866353     -2.724985
   198    -17.799529      9.439626     -5.449970
   199    -17.799529      4.719812     -2.724985
   200    -13.349645     15.732709     -5.449970
   201    -13.349645     11.012897     -2.724985
   202     -8.899763     12.586167     -5.449970
   203     -8.899763      7.866353     -2.724985
   204     -4.449882      9.439626     -5.449970
   205     -4.449882      4.719812     -2.724985
   206      0.000000     15.732709     -5.449970
   207      0.000000     11.012897     -2.724985
   208    -26.699292      6.293083     -5.449970
   209    -26.699292      1.573271     -2.724985
   210    -22.249411      3.146541     -5.449970
   211    -22.249411     -1.573271     -2.724985
   212    -17.799529      0.000000     -5.449970
   213    -17.799529     -4.719812     -2.724985
   214    -13.349645      6.293083     -5.449970
   215    -13.349645      1.573271     -2.724985
   216     -8.899763      3.146541     -5.449970
   217     -8.899763     -1.573271     -2.724985
   218     -4.449882      0.000000     -5.449970
   219     -4.449882     -4.719812     -2.724985
   220      0.000000      6.293083     -5.449970
   221      0.000000      1.573271     -2.724985
   222    -26.699292     -3.146541     -5.449970
   223    -26.699292     -7.866353     -2.724985
   224    -22.249411     -6.293083     -5.449970
   225    -22.249411    -11.012897     -2.724985
   226    -17.799529     -9.439626     -5.449970
   227    -17.799529    -14.159438     -2.724985
   228    -13.349645     -3.146541     -5.449970
   229    -13.349645     -7.866353     -2.724985
   230     -8.899763     -6.293083     -5.449970
   231     -8.899763    -11.012897     -2.724985
   232     -4.449882     -9.439626     -5.449970
   233     -4.449882    -14.159438     -2.724985
   234      0.000000     -3.146541     -5.449970
   235      0.000000     -7.866353     -2.724985
   236    -22.249411    -15.732709     -5.449970
   237    -17.799529    -18.879250     -5.449970
   238    -17.799529    -23.599062     -2.724985
   239    -13.349645    -12.586167     -5.449970
   240    -13.349645    -17.305980     -2.724985
   241     -8.899763    -15.732709     -5.449970
   242     -8.899763    -20.452521     -2.724985
   243     -4.449882    -18.879250     -5.449970
   244     -4.449882    -23.599062     -2.724985
   245      0.000000    -12.586167     -5.449970
   246      0.000000    -17.305980     -2.724985
   247    -13.349645    -22.025792     -5.449970
   248     -8.899763    -25.172333     -5.449970
   249     -4.449882    -28.318876     -5.449970
   250      0.000000    -22.025792     -5.449970
   251      0.000000    -26.745604     -2.724985
   252    -17.799529     23.599062      2.724985
   253     -8.899763     26.745604      2.724985
   254     -4.449882     28.318876      0.000000
   255     -4.449882     23.599062      2.724985
   256    -22.249411     17.305980      2.724985
   257    -17.799529     18.879250      0.000000
   258    -17.799529     14.159438      2.724985
   259    -13.349645     25.172333      0.000000
   260    -13.349645     20.452521      2.724985
   261     -8.899763     22.025792      0.000000
   262     -8.899763     17.305980      2.724985
   263     -4.449882     18.879250      0.000000
   264     -4.449882     14.159438      2.724985
   265      0.000000     25.172333      0.000000
   266      0.000000     20.452521      2.724985
   267    -26.699292     11.012897      2.724985
   268    -22.249411     12.586167      0.000000
   269    -22.249411      7.866353      2.724985
   270    -17.799529      9.439626      0.000000
   271    -17.799529      4.719812      2.724985
   272    -13.349645     15.732709      0.000000
   273    -13.349645     11.012897      2.724985
   274     -8.899763     12.586167      0.000000
   275     -8.899763      7.866353      2.724985
   276     -4.449882      9.439626      0.000000
   277     -4.449882      4.719812      2.724985
   278      0.000000     15.732709      0.000000
   279      0.000000     11.012897      2.724985
   280    -26.699292      6.293083      0.000000
   281    -26.699292      1.573271      2.724985
   282    -22.249411      3.146541      0.000000
   283    -22.249411     -1.573271      2.724985
   284    -17.799529      0.000000      0.000000
   285    -17.799529     -4.719812      2.724985
   286    -13.349645      6.293083      0.000000
   287    -13.349645      1.573271      2.724985
   288     -8.899763      3.146541      0.000000
   289     -8.899763     -1.573271      2.724985
   290     -4.449882      0.000000      0.000000
   291     -4.449882     -4.719812      2.724985
   292      0.000000      6.293083      0.000000
   293      0.000000      1.573271      2.724985
   294    -26.699292     -3.146541      0.000000
   295    -26.699292     -7.866353      2.724985
   296    -22.249411     -6.293083      0.000000
   297    -22.249411    -11.012897      2.724985
   298    -17.799529     -9.439626      0.000000
   299    -17.799529    -14.159438      2.724985
   300    -13.349645     -3.146541      0.000000
   301    -13.349645     -7.866353      2.724985
   302     -8.899763     -6.293083      0.000000
   303     -8.899763    -11.012897      2.724985
   304     -4.449882     -9.439626      0.000000
   305     -4.449882    -14.159438      2.724985
   306      0.000000     -3.146541      0.000000
   307      0.000000     -7.866353      2.724985
   308    -26.699292    -12.586167      0.000000
   309    -22.249411    -15.732709      0.000000
   310    -17.799529    -18.879250      0.000000
   311    -17.799529    -23.599062      2.724985
   312    -13.349645    -12.586167      0.000000
   313    -13.349645    -17.305980      2.724985
   314     -8.899763    -15.732709      0.000000
   315     -8.899763    -20.452521      2.724985
   316     -4.449882    -18.879250      0.000000
   317     -4.449882    -23.599062      2.724985
   318      0.000000    -12.586167      0.000000
   319      0.000000    -17.305980      2.724985
   320    -13.349645    -22.025792      0.000000
   321     -8.899763    -25.172333      0.000000
   322     -4.449882    -28.318876      0.000000
   323      0.000000    -22.025792      0.000000
   324      0.000000    -26.745604      2.724985
   325     -8.899763     26.745604      8.174955
   326     -4.449882     28.318876      5.449970
   327     -4.449882     23.599062      8.174955
   328    -22.249411     17.305980      8.174955
   329    -17.799529     18.879250      5.449970
   330    -17.799529     14.159438      8.174955
   331    -13.349645     25.172333      5.449970
   332    -13.349645     20.452521      8.174955
   333     -8.899763     22.025792      5.449970
   334     -8.899763     17.305980      8.174955
   335     -4.449882     18.879250      5.449970
   336     -4.449882     14.159438      8.174955
   337      0.000000     25.172333      5.449970
   338      0.000000     20.452521      8.174955
   339    -22.249411     12.586167      5.449970
   340    -22.249411      7.866353      8.174955
   341    -17.799529      9.439626      5.449970
   342    -17.799529      4.719812      8.174955
   343    -13.349645     15.732709      5.449970
   344    -13.349645     11.012897      8.174955
   345     -8.899763     12.586167      5.449970
   346     -8.899763      7.866353      8.174955
   347     -4.449882      9.439626      5.449970
   348     -4.449882      4.719812      8.174955
   349      0.000000     15.732709      5.449970
   350      0.000000     11.012897      8.174955
   351    -26.699292      6.293083      5.449970
   352    -26.699292      1.573271      8.174955
   353    -22.249411      3.146541      5.449970
   354    -22.249411     -1.573271      8.174955
   355    -17.799529      0.000000      5.449970
   356    -17.799529     -4.719812      8.174955
   357    -13.349645      6.293083      5.449970
   358    -13.349645      1.573271      8.174955
   359     -8.899763      3.146541      5.449970
   360     -8.899763     -1.573271      8.174955
   361     -4.449882      0.000000      5.449970
   362     -4.449882     -4.719812      8.174955
   363      0.000000      6.293083      5.449970
   364      0.000000      1.573271      8.174955
   365    -26.699292     -3.146541      5.449970
   366    -26.699292     -7.866353      8.174955
   367    -22.249411     -6.293083      5.449970
   368    -22.249411    -11.012897      8.174955
   369    -17.799529     -9.439626      5.449970
   370    -17.799529    -14.159438      8.174955
   371    -13.349645     -3.146541      5.449970
   372    -13.349645     -7.866353      8.174955
   373     -8.899763     -6.293083      5.449970
   374     -8.899763    -11.012897      8.174955
   375     -4.449882     -9.439626      5.449970
   376     -4.449882    -14.159438      8.174955
   377      0.000000     -3.146541      5.449970
   378      0.000000     -7.866353      8.174955
   379    -22.249411    -15.732709      5.449970
   380    -17.799529    -18.879250      5.449970
   381    -13.349645    -12.586167      5.449970
   382    -13.349645    -17.305980      8.174955
   383     -8.899763    -15.732709      5.449970
   384     -8.899763    -20.452521      8.174955
   385     -4.449882    -18.879250      5.449970
   386     -4.449882    -23.599062      8.174955
   387      0.000000    -12.586167      5.449970
   388      0.000000    -17.305980      8.174955
   389    -13.349645    -22.025792      5.449970
   390     -8.899763    -25.172333      5.449970
   391     -4.449882    -28.318876      5.449970
   392      0.000000    -22.025792      5.449970
   393      0.000000    -26.745604      8.174955
   394     -4.449882     23.599062     13.624925
   395    -17.799529     18.879250     10.899940
   396    -17.799529     14.159438     13.624925
   397    -13.349645     20.452521     13.624925
   398     -8.899763     22.025792     10.899940
   399     -8.899763     17.305980     13.624925
   400     -4.449882     18.879250     10.899940
   401     -4.449882     14.159438     13.624925
   402      0.000000     25.172333     10.899940
   403      0.000000     20.452521     13.624925
   404    -22.249411     12.586167     10.899940
   405    -22.249411      7.866353     13.624925
   406    -17.799529      9.439626     10.899940
   407    -17.799529      4.719812     13.624925
   408    -13.349645     15.732709     10.899940
   409    -13.349645     11.012897     13.624925
   410     -8.899763     12.586167     10.899940
   411     -8.899763      7.866353     13.624925
   412     -4.449882      9.439626     10.899940
   413     -4.449882      4.719812     13.624925
   414      0.000000     15.732709     10.899940
   415      0.000000     11.012897     13.624925
   416    -26.699292      6.293083     10.899940
   417    -22.249411      3.146541     10.899940
   418    -22.249411     -1.573271     13.624925
   419    -17.799529      0.000000     10.899940
   420    -17.799529     -4.719812     13.624925
   421    -13.349645      6.293083     10.899940
   422    -13.349645      1.573271     13.624925
   423     -8.899763      3.146541     10.899940
   424     -8.899763     -1.573271     13.624925
   425     -4.449882      0.000000     10.899940
   426     -4.449882     -4.719812     13.624925
   427      0.000000      6.293083     10.899940
   428      0.000000      1.573271     13.624925
   429    -26.699292     -3.146541     10.899940
   430    -22.249411     -6.293083     10.899940
   431    -22.249411    -11.012897     13.624925
   432    -17.799529     -9.439626     10.899940
   433    -17.799529    -14.159438     13.624925
   434    -13.349645     -3.146541     10.899940
   435    -13.349645     -7.866353     13.624925
   436     -8.899763     -6.293083     10.899940
   437     -8.899763    -11.012897     13.624925
   438     -4.449882     -9.439626     10.899940
   439     -4.449882    -14.159438     13.624925
   440      0.000000     -3.146541     10.899940
   441      0.000000     -7.866353     13.624925
   442    -22.249411    -15.732709     10.899940
   443    -17.799529    -18.879250     10.899940
   444    -13.349645    -12.586167     10.899940
   445    -13.349645    -17.305980     13.624925
   446     -8.899763    -15.732709     10.899940
   447     -8.899763    -20.452521     13.624925
   448     -4.449882    -18.879250     10.899940
   449     -4.449882    -23.599062     13.624925
   450      0.000000    -12.586167     10.899940
   451      0.000000    -17.305980     13.624925
   452    -13.349645    -22.025792     10.899940
   453     -8.899763    -25.172333     10.899940
   454      0.000000    -22.025792     10.899940
   455    -17.799529     14.159438     19.074896
   456     -8.899763     22.025792     16.349910
   457     -8.899763     17.305980     19.074896
   458     -4.449882     18.879250     16.349910
   459     -4.449882     14.159438     19.074896
   460      0.000000     20.452521     19.074896
   461    -17.799529      9.439626     16.349910
   462    -17.799529      4.719812     19.074896
   463    -13.349645     15.732709     16.349910
   464    -13.349645     11.012897     19.074896
   465     -8.899763     12.586167     16.349910
   466     -8.899763      7.866353     19.074896
   467     -4.449882      9.439626     16.349910
   468     -4.449882      4.719812     19.074896
   469      0.000000     15.732709     16.349910
   470      0.000000     11.012897     19.074896
   471    -22.249411      3.146541     16.349910
   472    -22.249411     -1.573271     19.074896
   473    -17.799529      0.000000     16.349910
   474    -17.799529     -4.719812     19.074896
   475    -13.349645      6.293083     16.349910
   476    -13.349645      1.573271     19.074896
   477     -8.899763      3.146541     16.349910
   478     -8.899763     -1.573271     19.074896
   479     -4.449882      0.000000     16.349910
   480     -4.449882     -4.719812     19.074896
   481      0.000000      6.293083     16.349910
   482      0.000000      1.573271     19.074896
   483    -22.249411     -6.293083     16.349910
   484    -17.799529     -9.439626     16.349910
   485    -17.799529    -14.159438     19.074896
   486    -13.349645     -3.146541     16.349910
   487    -13.349645     -7.866353     19.074896
   488     -8.899763     -6.293083     16.349910
   489     -8.899763    -11.012897     19.074896
   490     -4.449882     -9.439626     16.349910
   491     -4.449882    -14.159438     19.074896
   492      0.000000     -3.146541     16.349910
   493      0.000000     -7.866353     19.074896
   494    -13.349645    -12.586167     16.349910
   495    -13.349645    -17.305980     19.074896
   496     -8.899763    -15.732709     16.349910
   497     -8.899763    -20.452521     19.074896
   498     -4.449882    -18.879250     16.349910
   499      0.000000    -12.586167     16.349910
   500      0.000000    -17.305980     19.074896
   501      0.000000    -22.025792     16.349910
   502     -4.449882     18.879250     21.799881
   503     -4.449882     14.159438     24.524866
   504    -17.799529      9.439626     21.799881
   505     -8.899763     12.586167     21.799881
   506     -8.899763      7.866353     24.524866
   507     -4.449882      9.439626     21.799881
   508     -4.449882      4.719812     24.524866
   509      0.000000     15.732709     21.799881
   510      0.000000     11.012897     24.524866
   511    -17.799529      0.000000     21.799881
   512    -13.349645      6.293083     21.799881
   513    -13.349645      1.573271     24.524866
   514     -8.899763      3.146541     21.799881
   515     -8.899763     -1.573271     24.524866
   516     -4.449882      0.000000     21.799881
   517     -4.449882     -4.719812     24.524866
   518      0.000000      6.293083     21.799881
   519      0.000000      1.573271     24.524866
   520    -17.799529     -9.439626     21.799881
   521    -13.349645     -3.146541     21.799881
   522    -13.349645     -7.866353     24.524866
   523     -8.899763     -6.293083     21.799881
   524     -8.899763    -11.012897     24.524866
   525     -4.449882     -9.439626     21.799881
   526     -4.449882    -14.159438     24.524866
   527      0.000000     -3.146541     21.799881
   528      0.000000     -7.866353     24.524866
   529    -13.349645    -12.586167     21.799881
   530     -8.899763    -15.732709     21.799881
   531     -4.449882    -18.879250     21.799881
   532      0.000000    -12.586167     21.799881
   533     -4.449882      9.439626     27.249851
   534     -8.899763      3.146541     27.249851
   535     -4.449882      0.000000     27.249851
   536      0.000000      6.293083     27.249851
   537     -8.899763     -6.293083     27.249851
   538     -4.449882     -9.439626     27.249851
   539      0.000000     -3.146541     27.249851
   540    -85.800242     14.159438    -24.524866
   541    -81.350361      7.866353    -24.524866
   542    -85.800242      9.439626    -27.249851
   543    -85.800242      4.719812    -24.524866
   544    -90.250124     11.012897    -24.524866
   545    -76.900479      1.573271    -24.524866
   546    -81.350361      3.146541    -27.249851
   547    -81.350361     -1.573271    -24.524866
   548    -85.800242      0.000000    -27.249851
   549    -85.800242     -4.719812    -24.524866
   550    -90.250124      6.293083    -27.249851
   551    -90.250124      1.573271    -24.524866
   552    -76.900479     -7.866353    -24.524866
   553    -81.350361     -6.293083    -27.249851
   554    -81.350361    -11.012897    -24.524866
   555    -85.800242     -9.439626    -27.249851
   556    -85.800242    -14.159438    -24.524866
   557    -90.250124     -3.146541    -27.249851
   558    -90.250124     -7.866353    -24.524866
   559    -72.450597     14.159438    -19.074896
   560    -81.350361     17.305980    -19.074896
   561    -85.800242     18.879250    -21.799881
   562    -85.800242     14.159438    -19.074896
   563    -90.250124     20.452521    -19.074896
   564    -72.450597      9.439626    -21.799881
   565    -72.450597      4.719812    -19.074896
   566    -76.900479     11.012897    -19.074896
   567    -81.350361     12.586167    -21.799881
   568    -81.350361      7.866353    -19.074896
   569    -85.800242      9.439626    -21.799881
   570    -85.800242      4.719812    -19.074896
   571    -90.250124     15.732709    -21.799881
   572    -90.250124     11.012897    -19.074896
   573    -68.000716     -1.573271    -19.074896
   574    -72.450597      0.000000    -21.799881
   575    -72.450597     -4.719812    -19.074896
   576    -76.900479      6.293083    -21.799881
   577    -76.900479      1.573271    -19.074896
   578    -81.350361      3.146541    -21.799881
   579    -81.350361     -1.573271    -19.074896
   580    -85.800242      0.000000    -21.799881
   581    -85.800242     -4.719812    -19.074896
   582    -90.250124      6.293083    -21.799881
   583    -90.250124      1.573271    -19.074896
   584    -72.450597     -9.439626    -21.799881
   585    -72.450597    -14.159438    -19.074896
   586    -76.900479     -3.146541    -21.799881
   587    -76.900479     -7.866353    -19.074896
   588    -81.350361     -6.293083    -21.799881
   589    -81.350361    -11.012897    -19.074896
   590    -85.800242     -9.439626    -21.799881
   591    -85.800242    -14.159438    -19.074896
   592    -90.250124     -3.146541    -21.799881
   593    -90.250124     -7.866353    -19.074896
   594    -76.900479    -12.586167    -21.799881
   595    -76.900479    -17.305980    -19.074896
   596    -81.350361    -15.732709    -21.799881
   597    -81.350361    -20.452521    -19.074896
   598    -85.800242    -18.879250    -21.799881
   599    -90.250124    -12.586167    -21.799881
   600    -90.250124    -17.305980    -19.074896
   601    -85.800242     23.599062    -13.624925
   602    -72.450597     14.159438    -13.624925
   603    -76.900479     20.452521    -13.624925
   604    -81.350361     22.025792    -16.349910
   605    -81.350361     17.305980    -13.624925
   606    -85.800242     18.879250    -16.349910
   607    -85.800242     14.159438    -13.624925
   608    -90.250124     20.452521    -13.624925
   609    -68.000716      7.866353    -13.624925
   610    -72.450597      9.439626    -16.349910
   611    -72.450597      4.719812    -13.624925
   612    -76.900479     15.732709    -16.349910
   613    -76.900479     11.012897    -13.624925
   614    -81.350361     12.586167    -16.349910
   615    -81.350361      7.866353    -13.624925
   616    -85.800242      9.439626    -16.349910
   617    -85.800242      4.719812    -13.624925
   618    -90.250124     15.732709    -16.349910
   619    -90.250124     11.012897    -13.624925
   620    -68.000716      3.146541    -16.349910
   621    -68.000716     -1.573271    -13.624925
   622    -72.450597      0.000000    -16.349910
   623    -72.450597     -4.719812    -13.624925
   624    -76.900479      6.293083    -16.349910
   625    -76.900479      1.573271    -13.624925
   626    -81.350361      3.146541    -16.349910
   627    -81.350361     -1.573271    -13.624925
   628    -85.800242      0.000000    -16.349910
   629    -85.800242     -4.719812    -13.624925
   630    -90.250124      6.293083    -16.349910
   631    -90.250124      1.573271    -13.624925
   632    -68.000716     -6.293083    -16.349910
   633    -68.000716    -11.012897    -13.624925
   634    -72.450597     -9.439626    -16.349910
   635    -72.450597    -14.159438    -13.624925
   636    -76.900479     -3.146541    -16.349910
   637    -76.900479     -7.866353    -13.624925
   638    -81.350361     -6.293083    -16.349910
   639    -81.350361    -11.012897    -13.624925
   640    -85.800242     -9.439626    -16.349910
   641    -85.800242    -14.159438    -13.624925
   642    -90.250124     -3.146541    -16.349910
   643    -90.250124     -7.866353    -13.624925
   644    -76.900479    -12.586167    -16.349910
   645    -76.900479    -17.305980    -13.624925
   646    -81.350361    -15.732709    -16.349910
   647    -81.350361    -20.452521    -13.624925
   648    -85.800242    -18.879250    -16.349910
   649    -85.800242    -23.599062    -13.624925
   650    -90.250124    -12.586167    -16.349910
   651    -90.250124    -17.305980    -13.624925
   652    -90.250124    -22.025792    -16.349910
   653    -81.350361     26.745604     -8.174955
   654    -85.800242     23.599062     -8.174955
   655    -68.000716     17.305980     -8.174955
   656    -72.450597     18.879250    -10.899940
   657    -72.450597     14.159438     -8.174955
   658    -76.900479     20.452521     -8.174955
   659    -81.350361     22.025792    -10.899940
   660    -81.350361     17.305980     -8.174955
   661    -85.800242     18.879250    -10.899940
   662    -85.800242     14.159438     -8.174955
   663    -90.250124     25.172333    -10.899940
   664    -90.250124     20.452521     -8.174955
   665    -68.000716     12.586167    -10.899940
   666    -68.000716      7.866353     -8.174955
   667    -72.450597      9.439626    -10.899940
   668    -72.450597      4.719812     -8.174955
   669    -76.900479     15.732709    -10.899940
   670    -76.900479     11.012897     -8.174955
   671    -81.350361     12.586167    -10.899940
   672    -81.350361      7.866353     -8.174955
   673    -85.800242      9.439626    -10.899940
   674    -85.800242      4.719812     -8.174955
   675    -90.250124     15.732709    -10.899940
   676    -90.250124     11.012897     -8.174955
   677    -63.550832      6.293083    -10.899940
   678    -63.550832      1.573271     -8.174955
   679    -68.000716      3.146541    -10.899940
   680    -68.000716     -1.573271     -8.174955
   681    -72.450597      0.000000    -10.899940
   682    -72.450597     -4.719812     -8.174955
   683    -76.900479      6.293083    -10.899940
   684    -76.900479      1.573271     -8.174955
   685    -81.350361      3.146541    -10.899940
   686    -81.350361     -1.573271     -8.174955
   687    -85.800242      0.000000    -10.899940
   688    -85.800242     -4.719812     -8.174955
   689    -90.250124      6.293083    -10.899940
   690    -90.250124      1.573271     -8.174955
   691    -63.550832     -3.146541    -10.899940
   692    -63.550832     -7.866353     -8.174955
   693    -68.000716     -6.293083    -10.899940
   694    -68.000716    -11.012897     -8.174955
   695    -72.450597     -9.439626    -10.899940
   696    -72.450597    -14.159438     -8.174955
   697    -76.900479     -3.146541    -10.899940
   698    -76.900479     -7.866353     -8.174955
   699    -81.350361     -6.293083    -10.899940
   700    -81.350361    -11.012897     -8.174955
   701    -85.800242     -9.439626    -10.899940
   702    -85.800242    -14.159438     -8.174955
   703    -90.250124     -3.146541    -10.899940
   704    -90.250124     -7.866353     -8.174955
   705    -68.000716    -15.732709    -10.899940
   706    -72.450597    -18.879250    -10.899940
   707    -76.900479    -12.586167    -10.899940
   708    -76.900479    -17.305980     -8.174955
   709    -81.350361    -15.732709    -10.899940
   710    -81.350361    -20.452521     -8.174955
   711    -85.800242    -18.879250    -10.899940
   712    -85.800242    -23.599062     -8.174955
   713    -90.250124    -12.586167    -10.899940
   714    -90.250124    -17.305980     -8.174955
   715    -76.900479    -22.025792    -10.899940
   716    -81.350361    -25.172333    -10.899940
   717    -90.250124    -22.025792    -10.899940
   718    -90.250124    -26.745604     -8.174955
   719    -72.450597     23.599062     -2.724985
   720    -81.350361     26.745604     -2.724985
   721    -85.800242     28.318876     -5.449970
   722    -85.800242     23.599062     -2.724985
   723    -68.000716     17.305980     -2.724985
   724    -72.450597     18.879250     -5.449970
   725    -72.450597     14.159438     -2.724985
   726    -76.900479     25.172333     -5.449970
   727    -76.900479     20.452521     -2.724985
   728    -81.350361     22.025792     -5.449970
   729    -81.350361     17.305980     -2.724985
   730    -85.800242     18.879250     -5.449970
   731    -85.800242     14.159438     -2.724985
   732    -90.250124     25.172333     -5.449970
   733    -90.250124     20.452521     -2.724985
   734    -63.550832     11.012897     -2.724985
   735    -68.000716     12.586167     -5.449970
   736    -68.000716      7.866353     -2.724985
   737    -72.450597      9.439626     -5.449970
   738    -72.450597      4.719812     -2.724985
   739    -76.900479     15.732709     -5.449970
   740    -76.900479     11.012897     -2.724985
   741    -81.350361     12.586167     -5.449970
   742    -81.350361      7.866353     -2.724985
   743    -85.800242      9.439626     -5.449970
   744    -85.800242      4.719812     -2.724985
   745    -90.250124     15.732709     -5.449970
   746    -90.250124     11.012897     -2.724985
   747    -63.550832      6.293083     -5.449970
   748    -63.550832      1.573271     -2.724985
   749    -68.000716      3.146541     -5.449970
   750    -68.000716     -1.573271     -2.724985
   751    -72.450597      0.000000     -5.449970
   752    -72.450597     -4.719812     -2.724985
   753    -76.900479      6.293083     -5.449970
   754    -76.900479      1.573271     -2.724985
   755    -81.350361      3.146541     -5.449970
   756    -81.350361     -1.573271     -2.724985
   757    -85.800242      0.000000     -5.449970
   758    -85.800242     -4.719812     -2.724985
   759    -90.250124      6.293083     -5.449970
   760    -90.250124      1.573271     -2.724985
   761    -63.550832     -3.146541     -5.449970
   762    -63.550832     -7.866353     -2.724985
   763    -68.000716     -6.293083     -5.449970
   764    -68.000716    -11.012897     -2.724985
   765    -72.450597     -9.439626     -5.449970
   766    -72.450597    -14.159438     -2.724985
   767    -76.900479     -3.146541     -5.449970
   768    -76.900479     -7.866353     -2.724985
   769    -81.350361     -6.293083     -5.449970
   770    -81.350361    -11.012897     -2.724985
   771    -85.800242     -9.439626     -5.449970
   772    -85.800242    -14.159438     -2.724985
   773    -90.250124     -3.146541     -5.449970
   774    -90.250124     -7.866353     -2.724985
   775    -68.000716    -15.732709     -5.449970
   776    -72.450597    -18.879250     -5.449970
   777    -72.450597    -23.599062     -2.724985
   778    -76.900479    -12.586167     -5.449970
   779    -76.900479    -17.305980     -2.724985
   780    -81.350361    -15.732709     -5.449970
   781    -81.350361    -20.452521     -2.724985
   782    -85.800242    -18.879250     -5.449970
   783    -85.800242    -23.599062     -2.724985
   784    -90.250124    -12.586167     -5.449970
   785    -90.250124    -17.305980     -2.724985
   786    -76.900479    -22.025792     -5.449970
   787    -81.350361    -25.172333     -5.449970
   788    -85.800242    -28.318876     -5.449970
   789    -90.250124    -22.025792     -5.449970
   790    -90.250124    -26.745604     -2.724985
   791    -72.450597     23.599062      2.724985
   792    -81.350361     26.745604      2.724985
   793    -85.800242     28.318876      0.000000
   794    -85.800242     23.599062      2.724985
   795    -68.000716     17.305980      2.724985
   796    -72.450597     18.879250      0.000000
   797    -72.450597     14.159438      2.724985
   798    -76.900479     25.172333      0.000000
   799    -76.900479     20.452521      2.724985
   800    -81.350361     22.025792      0.000000
   801    -81.350361     17.305980      2.724985
   802    -85.800242     18.879250      0.000000
   803    -85.800242     14.159438      2.724985
   804    -90.250124     25.172333      0.000000
   805    -90.250124     20.452521      2.724985
   806    -63.550832     11.012897      2.724985
   807    -68.000716     12.586167      0.000000
   808    -68.000716      7.866353      2.724985
   809    -72.450597      9.439626      0.000000
   810    -72.450597      4.719812      2.724985
   811    -76.900479     15.732709      0.000000
   812    -76.900479     11.012897      2.724985
   813    -81.350361     12.586167      0.000000
   814    -81.350361      7.866353      2.724985
   815    -85.800242      9.439626      0.000000
   816    -85.800242      4.719812      2.724985
   817    -90.250124     15.732709      0.000000
   818    -90.250124     11.012897      2.724985
   819    -63.550832      6.293083      0.000000
   820    -63.550832      1.573271      2.724985
   821    -68.000716      3.146541      0.000000
   822    -68.000716     -1.573271      2.724985
   823    -72.450597      0.000000      0.000000
   824    -72.450597     -4.719812      2.724985
   825    -76.900479      6.293083      0.000000
   826    -76.900479      1.573271      2.724985
   827    -81.350361      3.146541      0.000000
   828    -81.350361     -1.573271      2.724985
   829    -85.800242      0.000000      0.000000
   830    -85.800242     -4.719812      2.724985
[...]
 ------------------------------------------------------------------

 Default print level:        0

      Electronic excitation energies 
      Direct calculation - no two-electron integrals written or read.
      Two-electron integrals will be calculated in parallel
      Natural orbital connection is used
      for perturbation dependent basis sets.


 Changes of defaults for .EXCITA:
 --------------------------------

 Number of excitation energies:   15
 Print level          :    0
 Integral print level :    0
 Convergence threshold: 1.00E-04
 Maximum iterations   :   60
 Dipole strength

 Center of mass dipole origin  :  -45.635591   -4.105843   -2.734815

 Center of mass gauge origin   :  -45.635591   -4.105843   -2.734815


                 .------------------------------------------------.
                 | Starting in Static Property Section (ABACUS) - |
                 `------------------------------------------------'


 
     Date and time (Linux)  : Thu Sep 30 20:52:51 2021
     Host name              : node364.cluster                         


                  **********************************************
                  *** ABACUS - Excitation energies (.EXCITA) ***
                  **********************************************

  Time used in EXCITA     is       8 hours 55 minutes 30 seconds


   ***************************************************************************
   ************************ FINAL RESULTS from ABACUS ************************
   ***************************************************************************


 
     Date and time (Linux)  : Fri Oct  1 05:48:46 2021
     Host name              : node364.cluster                         


                             Molecular geometry (au)
                             -----------------------

 C        -45.5916811450          -12.6900762144           -4.0640802610
 C        -43.1477028961          -12.1399199378           -3.9662982573
 C        -42.6615730274          -10.0728778946           -5.9414481044
 C        -44.0767156049           -7.6997744817           -5.0145211960
 C        -46.5495376733           -8.2415610555           -5.1348083374
 C        -46.7623294975          -10.9845514269           -6.0941335571
 C        -42.7501010896           -5.4917291083           -3.9886619811
 C        -43.5622636548           -4.2970612313           -1.7809860700
 C        -42.2585945532           -2.2446969064           -0.8149698800
 C        -40.1232267956           -1.3382129513           -2.0511377339
 C        -39.2951642543           -2.5026865310           -4.2543185630
 C        -40.5860465071           -4.5745672992           -5.1900677976
 C        -35.5133962980            0.0000000000            0.0000000000
 C        -33.8356930846            1.8922319585            1.3190117672
 C        -48.7618469888           -6.7334253994           -4.4481537129
 C        -50.8921673938           -7.9024605173           -3.4254639391
 C        -52.9952555980           -6.5011202614           -2.7372806584
 C        -53.0190191667           -3.9063031019           -3.1190454224
 C        -50.9310165686           -2.7204741637           -4.1949680857
 C        -48.8256626016           -4.1204954399           -4.8375514643
 C        -54.4573490673            0.0000000000            0.0000000000
 C        -56.4365038677            1.7439233439            1.0839397432
 C        -44.5432325957          -10.9540505103           -7.9959317742
 S        -38.5258345577            1.3279233131           -0.8218462287
 S        -55.7378652312           -2.1556494624           -2.2857311583
 O        -34.9164104650           -2.1350630052           -0.4234828625
 O        -52.2765824745            0.0699133357            0.5805351869
 H        -46.6381803247          -13.9855376705           -2.8874189928
 H        -41.7372992832          -12.8751866255           -2.6911318514
 H        -40.7008204462           -9.7810906883           -6.4664391326
 H        -48.6155551089          -11.5195096928           -6.7930234402
 H        -45.2134428008           -5.0000158926           -0.8033342051
 H        -42.8850163364           -1.3514350872            0.9126889993
 H        -37.6396097120           -1.7949803990           -5.2180289299
 H        -39.9274805562           -5.4769861851           -6.9023705849
 H        -34.4831353308            3.8227493167            1.0487638029
 H        -31.9149360390            1.6725422787            0.6231354852
 H        -33.8534793721            1.4552392436            3.3312336681
 H        -50.8866006480           -9.9247411072           -3.1199575819
 H        -54.6165266741           -7.4194272597           -1.8976156598
 H        -50.9631620421           -0.7038139973           -4.5137824064
 H        -47.2057400341           -3.1937376998           -5.6702499763
 H        -58.3351887931            1.2510307577            0.4771350596
 H        -55.9970251312            3.6620571681            0.4810215667
 H        -56.3063072311            1.6693999798            3.1345969878
 H        -44.1053219463          -12.8165613325           -8.7499692457
 H        -44.7965852935           -9.5783022144           -9.5040587319





                        Molecular wave function and energy
                        ----------------------------------

     Spatial symmetry   1 ( A   )
     Spin multiplicity  1
     2 * M_S            0
     State number       1
     Total charge       0

     Total energy      -1834.5627771332 au (Hartrees)
                        -49920.99258587 eV
                          -4816643.8288 kJ/mol
                          -1151205.5040 kcal/mol


                   Scalar Breit-Pauli relativistic corrections
                   -------------------------------------------

     Darwin correction:                          8.5868556633 au
     Mass-velocity correction:                 -11.2137234863 au

     Total relativistic correction:             -2.6268678230 au ( 0.1432%)
     Non-relativistic + relativistic energy: -1837.1896449561 au



      (Note that these corrections are NOT included in the results below.)


                                  Dipole moment
                                  -------------

                 au               Debye          C m (/(10**-30)
              0.567012           1.441201           4.807328


                             Dipole moment components
                             ------------------------

                 au               Debye          C m (/(10**-30)

      x     -0.46875283        -1.19145078        -3.97425201
      y      0.31583175         0.80276418         2.67773308
      z      0.04498593         0.11434282         0.38140660


   Units:   1 a.u. =   2.54175 Debye 
            1 a.u. =   8.47835 (10**-30) C m (SI)




@               Singlet electronic excitation energies
                --------------------------------------

               ========================================
                 Sym.   Mode   Frequency    Frequency
                ex. st.  No.      (au)         (eV)
               ----------------------------------------
                   1      1     0.144904     3.943035
                   1      2     0.177344     4.825776
                   1      3     0.178346     4.853050
                   1      4     0.178616     4.860395
                   1      5     0.185680     5.052617
                   1      6     0.188135     5.119420
                   1      7     0.193060     5.253421
                   1      8     0.201141     5.473330
                   1      9     0.203588     5.539912
                   1     10     0.208630     5.677116
                   1     11     0.210589     5.730424
                   1     12     0.213403     5.806987
                   1     13     0.215087     5.852821
                   1     14     0.221050     6.015075
                   1     15     0.222431     6.052643
               ========================================


@               Electric transition dipole moments (au)
                ---------------------------------------

@        Mode    Frequency       Velocity/Frequency              Length
@         No.      (au)          x       y       z         x       y       z
@==============================================================================
@           1     0.144904     2.1666  0.1670  0.1617    2.1905  0.1791  0.1412
@           2     0.177344     0.1067 -0.2197 -0.1323    0.1071 -0.2259 -0.1148
@           3     0.178346     0.1652  0.1937  0.0272    0.1627  0.1868  0.0623
@           4     0.178616    -0.1529 -0.1861  0.0176   -0.1643 -0.1383 -0.0398
@           5     0.185680     0.4439 -0.4545 -0.2226    0.4507 -0.4861 -0.2256
@           6     0.188135    -0.7016  0.7190  0.3601   -0.7134  0.7459  0.3698
@           7     0.193060    -0.4778 -1.2041 -0.6745   -0.4921 -1.2404 -0.6769
@           8     0.201141    -0.5524  0.0420  0.1236   -0.5750  0.0527  0.1311
@           9     0.203588    -0.3292 -0.2482  0.3556   -0.3221 -0.1982  0.3318
@          10     0.208630     0.7507  0.4907 -0.3369    0.7853  0.4632 -0.2919
@          11     0.210589    -0.8381 -0.3076  0.1718   -0.8301 -0.3203  0.1385
@          12     0.213403     0.5575 -0.2876 -0.1970    0.6189 -0.3044 -0.1458
@          13     0.215087    -0.0731  0.1086  0.0904   -0.0774  0.1509  0.1086
@          14     0.221050    -0.2810  0.0145 -0.1382   -0.3074  0.0266 -0.1453
@          15     0.222431     0.1317  0.6228  0.4194    0.1483  0.6289  0.4282
@------------------------------------------------------------------------------


@                              Oscillator strengths
                               --------------------

@  Oscillator strengths are dimensionless.

@  Sym.   Mode        Frequency     Oscillator-strength
@ ex. st.  No.           (eV)        velocity   length
@ -------------------------------------------------------
@  1        1         3.943035        0.4587   0.4686
@  1        2         4.825776        0.0091   0.0089
@  1        3         4.853050        0.0078   0.0078
@  1        4         4.860395        0.0069   0.0057
@  1        5         5.052617        0.0561   0.0607
@  1        6         5.119420        0.1428   0.1508
@  1        7         5.253421        0.2746   0.2882
@  1        8         5.473330        0.0432   0.0470
@  1        9         5.539912        0.0402   0.0344
@  1       10         5.677116        0.1277   0.1275
@  1       11         5.730424        0.1160   0.1138
@  1       12         5.806987        0.0615   0.0707
@  1       13         5.852821        0.0036   0.0058
@  1       14         6.015075        0.0145   0.0171
@  1       15         6.052643        0.0862   0.0891

  Max    interatomic separation is   13.9830 Angstrom (   26.4240 Bohr)
  between atoms   43 and   37, "H     " and "H     ".

  Min HX interatomic separation is    1.0788 Angstrom (    2.0386 Bohr)

  Min YX interatomic separation is    1.1944 Angstrom (    2.2570 Bohr)


  Bond distances (Angstrom):
  --------------------------

                  atom 1     atom 2       distance
                  ------     ------       --------
  bond distance:  C          C            1.326670
  bond distance:  C          C            1.534632
  bond distance:  C          C            1.542208
  bond distance:  C          C            1.341112
  bond distance:  C          C            1.533733
  bond distance:  C          C            1.541858
  bond distance:  C          C            1.467239
  bond distance:  C          C            1.396133
  bond distance:  C          C            1.384478
  bond distance:  C          C            1.391003
  bond distance:  C          C            1.389601
  bond distance:  C          C            1.396837
  bond distance:  C          C            1.383441
  bond distance:  C          C            1.509317
  bond distance:  C          C            1.462702
  bond distance:  C          C            1.395143
  bond distance:  C          C            1.386033
  bond distance:  C          C            1.387957
  bond distance:  C          C            1.392405
  bond distance:  C          C            1.398381
  bond distance:  C          C            1.380482
  bond distance:  C          C            1.509153
  bond distance:  C          C            1.546249
  bond distance:  C          C            1.546625
  bond distance:  S          C            1.768680
  bond distance:  S          C            1.795588
  bond distance:  S          C            1.767113
  bond distance:  S          C            1.795394
  bond distance:  O          C            1.194373
  bond distance:  O          C            1.194775
  bond distance:  H          C            1.079043
  bond distance:  H          C            1.078783
  bond distance:  H          C            1.085175
  bond distance:  H          C            1.085661
  bond distance:  H          C            1.081432
  bond distance:  H          C            1.081274
  bond distance:  H          C            1.080668
  bond distance:  H          C            1.081912
  bond distance:  H          C            1.086955
  bond distance:  H          C            1.087303
  bond distance:  H          C            1.089683
  bond distance:  H          C            1.082291
  bond distance:  H          C            1.081497
  bond distance:  H          C            1.080558
  bond distance:  H          C            1.081441
  bond distance:  H          C            1.086575
  bond distance:  H          C            1.089114
  bond distance:  H          C            1.088061
  bond distance:  H          C            1.088265
  bond distance:  H          C            1.088526


  Bond angles (degrees):
  ----------------------

                  atom 1     atom 2     atom 3         angle
                  ------     ------     ------         -----
  bond angle:     C          C          C            106.974
  bond angle:     C          C          H            128.113
  bond angle:     C          C          H            124.802
  bond angle:     C          C          C            107.053
  bond angle:     C          C          H            128.294
  bond angle:     C          C          H            124.550
  bond angle:     C          C          C            106.402
  bond angle:     C          C          C             98.974
  bond angle:     C          C          H            115.853
  bond angle:     C          C          C             99.003
  bond angle:     C          C          H            115.458
  bond angle:     C          C          H            118.596
  bond angle:     C          C          C            106.536
  bond angle:     C          C          C            122.263
  bond angle:     C          C          C            130.893
  bond angle:     C          C          C            106.747
  bond angle:     C          C          C            130.731
  bond angle:     C          C          C            122.479
  bond angle:     C          C          C            107.090
  bond angle:     C          C          C             98.930
  bond angle:     C          C          H            116.744
  bond angle:     C          C          C             98.567
  bond angle:     C          C          H            115.062
  bond angle:     C          C          H            117.834
  bond angle:     C          C          C            121.528
  bond angle:     C          C          C            120.037
  bond angle:     C          C          C            118.417
  bond angle:     C          C          C            120.716
  bond angle:     C          C          H            119.556
  bond angle:     C          C          H            119.723
  bond angle:     C          C          C            120.111
  bond angle:     C          C          H            120.157
  bond angle:     C          C          H            119.730
  bond angle:     C          C          C            119.855
  bond angle:     C          C          S            119.365
  bond angle:     C          C          S            120.771
  bond angle:     C          C          C            119.738
  bond angle:     C          C          H            119.861
  bond angle:     C          C          H            120.400
  bond angle:     C          C          C            121.149
  bond angle:     C          C          H            119.466
  bond angle:     C          C          H            119.375
  bond angle:     C          C          S            111.999
  bond angle:     C          C          O            123.970
  bond angle:     S          C          O            124.027
  bond angle:     C          C          H            112.165
  bond angle:     C          C          H            108.803
  bond angle:     C          C          H            107.820
  bond angle:     H          C          H            110.523
  bond angle:     H          C          H            108.984
  bond angle:     H          C          H            108.441
  bond angle:     C          C          C            120.076
  bond angle:     C          C          C            121.481
  bond angle:     C          C          C            118.430
  bond angle:     C          C          C            120.896
  bond angle:     C          C          H            119.616
  bond angle:     C          C          H            119.469
  bond angle:     C          C          C            119.890
  bond angle:     C          C          H            120.299
  bond angle:     C          C          H            119.811
  bond angle:     C          C          C            119.880
  bond angle:     C          C          S            119.321
  bond angle:     C          C          S            120.788
  bond angle:     C          C          C            119.952
  bond angle:     C          C          H            119.764
  bond angle:     C          C          H            120.283
  bond angle:     C          C          C            120.920
  bond angle:     C          C          H            119.295
  bond angle:     C          C          H            119.783
  bond angle:     C          C          S            112.498
  bond angle:     C          C          O            123.617
  bond angle:     S          C          O            123.879
  bond angle:     C          C          H            112.495
  bond angle:     C          C          H            108.082
  bond angle:     C          C          H            108.238
  bond angle:     H          C          H            109.548
  bond angle:     H          C          H            110.157
  bond angle:     H          C          H            108.205
  bond angle:     C          C          C             91.981
  bond angle:     C          C          H            113.191
  bond angle:     C          C          H            113.149
  bond angle:     C          C          H            113.005
  bond angle:     C          C          H            112.988
  bond angle:     H          C          H            111.292
  bond angle:     C          S          C            101.608
  bond angle:     C          S          C            101.181




 CPU time statistics for ABACUS
 ------------------------------

 EXCITA     08:55:30     100 %

 TOTAL      08:55:54     100 %


  Total CPU  time used in ABACUS:   8 hours 55 minutes 54 seconds
  Total wall time used in ABACUS:   8 hours 55 minutes 56 seconds


                   .-------------------------------------------.
                   | End of Static Property Section (ABACUS) - |
                   `-------------------------------------------'

  Total CPU  time used in DALTON:  14 hours 20 minutes 22 seconds
  Total wall time used in DALTON:  14 hours 20 minutes 31 seconds

 
     Date and time (Linux)  : Fri Oct  1 05:48:46 2021
     Host name              : node364.cluster                         
