Running on  hostname
Thu Sep 16 10:27:19 CEST 2021

                                 *****************
                                 * O   R   C   A *
                                 *****************

                                            #,                                       
                                            ###                                      
                                            ####                                     
                                            #####                                    
                                            ######                                   
                                           ########,                                 
                                     ,,################,,,,,                         
                               ,,#################################,,                 
                          ,,##########################################,,             
                       ,#########################################, ''#####,          
                    ,#############################################,,   '####,        
                  ,##################################################,,,,####,       
                ,###########''''           ''''###############################       
              ,#####''   ,,,,##########,,,,          '''####'''          '####       
            ,##' ,,,,###########################,,,                        '##       
           ' ,,###''''                  '''############,,,                           
         ,,##''                                '''############,,,,        ,,,,,,###''
      ,#''                                            '''#######################'''  
     '                                                          ''''####''''         
             ,#######,   #######,   ,#######,      ##                                
            ,#'     '#,  ##    ##  ,#'     '#,    #''#        ######   ,####,        
            ##       ##  ##   ,#'  ##            #'  '#       #        #'  '#        
            ##       ##  #######   ##           ,######,      #####,   #    #        
            '#,     ,#'  ##    ##  '#,     ,#' ,#      #,         ##   #,  ,#        
             '#######'   ##     ##  '#######'  #'      '#     #####' # '####'        



                  #######################################################
                  #                        -***-                        #
                  #          Department of theory and spectroscopy      #
                  #    Directorship and core code : Frank Neese         #
                  #        Max Planck Institute fuer Kohlenforschung    #
                  #                Kaiser Wilhelm Platz 1               #
                  #                 D-45470 Muelheim/Ruhr               #
                  #                      Germany                        #
                  #                                                     #
                  #                  All rights reserved                #
                  #                        -***-                        #
                  #######################################################


                         Program Version 5.0.1 -  RELEASE  -


 With contributions from (in alphabetic order):
   Daniel Aravena         : Magnetic Suceptibility
   Michael Atanasov       : Ab Initio Ligand Field Theory (pilot matlab implementation)
   Alexander A. Auer      : GIAO ZORA, VPT2 properties, NMR spectrum
   Ute Becker             : Parallelization
   Giovanni Bistoni       : ED, misc. LED, open-shell LED, HFLD
   Martin Brehm           : Molecular dynamics
   Dmytro Bykov           : SCF Hessian
   Vijay G. Chilkuri      : MRCI spin determinant printing, contributions to CSF-ICE
   Dipayan Datta          : RHF DLPNO-CCSD density
   Achintya Kumar Dutta   : EOM-CC, STEOM-CC
   Dmitry Ganyushin       : Spin-Orbit,Spin-Spin,Magnetic field MRCI
   Miquel Garcia          : C-PCM and meta-GGA Hessian, CC/C-PCM, Gaussian charge scheme
   Yang Guo               : DLPNO-NEVPT2, F12-NEVPT2, CIM, IAO-localization
   Andreas Hansen         : Spin unrestricted coupled pair/coupled cluster methods
   Benjamin Helmich-Paris : MC-RPA, TRAH-SCF, COSX integrals
   Lee Huntington         : MR-EOM, pCC
   Robert Izsak           : Overlap fitted RIJCOSX, COSX-SCS-MP3, EOM
   Marcus Kettner         : VPT2
   Christian Kollmar      : KDIIS, OOCD, Brueckner-CCSD(T), CCSD density, CASPT2, CASPT2-K
   Simone Kossmann        : Meta GGA functionals, TD-DFT gradient, OOMP2, MP2 Hessian
   Martin Krupicka        : Initial AUTO-CI
   Lucas Lang             : DCDCAS
   Marvin Lechner         : AUTO-CI (C++ implementation), FIC-MRCC
   Dagmar Lenk            : GEPOL surface, SMD
   Dimitrios Liakos       : Extrapolation schemes; Compound Job, initial MDCI parallelization
   Dimitrios Manganas     : Further ROCIS development; embedding schemes
   Dimitrios Pantazis     : SARC Basis sets
   Anastasios Papadopoulos: AUTO-CI, single reference methods and gradients
   Taras Petrenko         : DFT Hessian,TD-DFT gradient, ASA, ECA, R-Raman, ABS, FL, XAS/XES, NRVS
   Peter Pinski           : DLPNO-MP2, DLPNO-MP2 Gradient
   Christoph Reimann      : Effective Core Potentials
   Marius Retegan         : Local ZFS, SOC
   Christoph Riplinger    : Optimizer, TS searches, QM/MM, DLPNO-CCSD(T), (RO)-DLPNO pert. Triples
   Tobias Risthaus        : Range-separated hybrids, TD-DFT gradient, RPA, STAB
   Michael Roemelt        : Original ROCIS implementation
   Masaaki Saitow         : Open-shell DLPNO-CCSD energy and density
   Barbara Sandhoefer     : DKH picture change effects
   Avijit Sen             : IP-ROCIS
   Kantharuban Sivalingam : CASSCF convergence, NEVPT2, FIC-MRCI
   Bernardo de Souza      : ESD, SOC TD-DFT
   Georgi Stoychev        : AutoAux, RI-MP2 NMR, DLPNO-MP2 response
   Willem Van den Heuvel  : Paramagnetic NMR
   Boris Wezisla          : Elementary symmetry handling
   Frank Wennmohs         : Technical directorship


 We gratefully acknowledge several colleagues who have allowed us to
 interface, adapt or use parts of their codes:
   Stefan Grimme, W. Hujo, H. Kruse, P. Pracht,  : VdW corrections, initial TS optimization,
                  C. Bannwarth, S. Ehlert          DFT functionals, gCP, sTDA/sTD-DF
   Ed Valeev, F. Pavosevic, A. Kumar             : LibInt (2-el integral package), F12 methods
   Garnet Chan, S. Sharma, J. Yang, R. Olivares  : DMRG
   Ulf Ekstrom                                   : XCFun DFT Library
   Mihaly Kallay                                 : mrcc  (arbitrary order and MRCC methods)
   Jiri Pittner, Ondrej Demel                    : Mk-CCSD
   Frank Weinhold                                : gennbo (NPA and NBO analysis)
   Christopher J. Cramer and Donald G. Truhlar   : smd solvation model
   Lars Goerigk                                  : TD-DFT with DH, B97 family of functionals
   V. Asgeirsson, H. Jonsson                     : NEB implementation
   FAccTs GmbH                                   : IRC, NEB, NEB-TS, DLPNO-Multilevel, CI-OPT
                                                   MM, QMMM, 2- and 3-layer-ONIOM, Crystal-QMMM,
                                                   LR-CPCM, SF, NACMEs, symmetry and pop. for TD-DFT,
                                                   nearIR, NL-DFT gradient (VV10), updates on ESD,
                                                   ML-optimized integration grids
   S Lehtola, MJT Oliveira, MAL Marques          : LibXC Library
   Liviu Ungur et al                             : ANISO software


 Your calculation uses the libint2 library for the computation of 2-el integrals
 For citations please refer to: http://libint.valeyev.net

 Your ORCA version has been built with support for libXC version: 5.1.0
 For citations please refer to: https://tddft.org/programs/libxc/

 This ORCA versions uses:
   CBLAS   interface :  Fast vector & matrix operations
   LAPACKE interface :  Fast linear algebra routines
   SCALAPACK package :  Parallel linear algebra routines
   Shared memory     :  Shared parallel matrices
   BLAS/LAPACK       :  OpenBLAS 0.3.15  USE64BITINT DYNAMIC_ARCH NO_AFFINITY Zen SINGLE_THREADED
        Core in use  :  Zen
   Copyright (c) 2011-2014, The OpenBLAS Project


XCFun DFT library Copyright 2009-2010 Ulf Ekstrom and contributors.
See http://admol.org/xcfun for more information.
This is free software; see the source code for copying conditions.
There is ABSOLUTELY NO WARRANTY; not even for MERCHANTABILITY or FITNESS FOR A PARTICULAR PURPOSE.
For details see the documentation.
Scientific users of this library should cite U. Ekstrom, L. Visscher, R. Bast, A. J. Thorvaldsen and K. Ruud;
J.Chem.Theor.Comp. 2010, DOI: 10.1021/ct100117s
XCFun Version 0.99 

================================================================================

----- Orbital basis set information -----
Your calculation utilizes the basis: cc-pVDZ 
       H, B-Ne : Obtained from the ccRepo (grant-hill.group.shef.ac.uk/ccrepo) Feb. 2017
                 T. H. Dunning, Jr., J. Chem. Phys. 90, 1007 (1989)
            He : Obtained from the ccRepo (grant-hill.group.shef.ac.uk/ccrepo) Feb. 2017
                 D. E. Woon, T. H. Dunning, Jr., J. Chem. Phys. 100, 2975 (1994)
  Li-Be, Na-Mg : Obtained from the ccRepo (grant-hill.group.shef.ac.uk/ccrepo) Feb. 2017
                 B. P. Prascher, D. E. Woon, K. A. Peterson, T. H. Dunning, Jr., A. K. Wilson, Theor. Chem. Acc. 128, 69 (2011)
         Al-Ar : Obtained from the ccRepo (grant-hill.group.shef.ac.uk/ccrepo) Feb. 2017
                 D. E. Woon, T. H. Dunning, Jr., J. Chem. Phys. 98, 1358 (1993)
            Ca : Obtained from the Peterson Research Group Website (tyr0.chem.wsu.edu/~kipeters) Feb. 2017
                 J. Koput, K. A. Peterson, J. Phys. Chem. 106, 9595 (2002)
         Sc-Zn : Obtained from the ccRepo (grant-hill.group.shef.ac.uk/ccrepo) Feb. 2017
                 N. B. Balabanov, K. A. Peterson, J. Chem. Phys. 123, 064107 (2005)
                 N. B. Balabanov, K. A. Peterson, J. Chem. Phys. 125, 074110 (2006)
         Ga-Kr : Obtained from the ccRepo (grant-hill.group.shef.ac.uk/ccrepo) Feb. 2017
                 A. K. Wilson, D. E. Woon, K. A. Peterson, T. H. Dunning, Jr., J. Chem. Phys. 110, 7667 (1999)

----- AuxJ basis set information -----
Your calculation utilizes the auxiliary basis: def2/J
   F. Weigend, Phys. Chem. Chem. Phys. 8, 1057 (2006).

================================================================================
                                        WARNINGS
                       Please study these warnings very carefully!
================================================================================


WARNING: Geometry Optimization
  ===> : Switching off AutoStart
         For restart on a previous wavefunction, please use MOREAD

WARNING: Minnesota functionals are quite sensitive to the integration grid.
         see SE Wheeler, KN Houk, JCTC 2010, 6, 395,
             N Mardirossian, M Head-Gordon, JCTC 2016, 12, 4303.
         DEFGRID3 seems to be a minimum grid for reliable results with these functionals!
  ===> : Please increase the integration grid!


INFO   : the flag for use of the SHARK integral package has been found!

================================================================================
                                       INPUT FILE
================================================================================
NAME = NBD_cc-pVDZ.inp
|  1> ! PAL4
|  2> ! RKS cc-pVDZ M062X VeryTightSCF TightOPT
|  3> ! Opt Freq
|  4> %method
|  5> end
|  6> %maxcore 2400
|  7> * xyz 0 1
|  8> C  1.203070  -0.785160  0.489290
|  9> C  1.236190  0.558590  0.588830
| 10> C  -0.015470  1.075650  -0.091650
| 11> C  -1.237180  0.617530  0.727680
| 12> C  -1.290660  -0.740730  0.574980
| 13> C  -0.072670  -1.146160  -0.259440
| 14> C  -2.096230  1.595690  1.435230
| 15> C  -2.996010  1.216710  2.434090
| 16> C  -3.944490  2.112680  2.949610
| 17> C  -3.967720  3.452570  2.553690
| 18> C  -2.982070  3.875020  1.666680
| 19> C  -2.059850  2.962270  1.122650
| 20> S  -5.332110  4.431980  3.140930
| 21> C  -4.858420  6.120600  3.090190
| 22> O  -3.732470  6.515770  2.814250
| 23> C  -5.972540  7.075630  3.432890
| 24> C  -2.229380  -1.774920  1.037920
| 25> C  -1.777070  -3.038310  1.437660
| 26> C  -2.663700  -3.984770  1.976260
| 27> C  -4.023350  -3.691020  2.137890
| 28> C  -4.490230  -2.474270  1.644170
| 29> C  -3.607920  -1.545610  1.074270
| 30> S  -5.067280  -4.931570  2.876700
| 31> C  -6.379800  -4.063670  3.671530
| 32> O  -6.348550  -2.869860  3.938750
| 33> C  -7.569320  -4.928290  4.005890
| 34> C  -0.091930  0.043420  -1.223620
| 35> H  1.915110  -1.480890  0.907790
| 36> H  1.969510  1.160410  1.102840
| 37> H  0.032690  2.092540  -0.475380
| 38> H  -0.082210  -2.112150  -0.764880
| 39> H  -3.011280  0.201950  2.819920
| 40> H  -4.686450  1.728650  3.648050
| 41> H  -2.915580  4.908590  1.340550
| 42> H  -1.336400  3.365630  0.421840
| 43> H  -6.899820  6.562000  3.702820
| 44> H  -6.173500  7.720120  2.572770
| 45> H  -5.661210  7.686180  4.285070
| 46> H  -0.724840  -3.302890  1.363410
| 47> H  -2.268590  -4.951310  2.283860
| 48> H  -5.541020  -2.205940  1.707200
| 49> H  -4.020040  -0.612690  0.695410
| 50> H  -7.386310  -5.988220  3.807040
| 51> H  -8.427240  -4.606030  3.408860
| 52> H  -7.801880  -4.818020  5.068900
| 53> H  0.768930  0.076930  -1.905250
| 54> H  -1.012080  0.113270  -1.822530
| 55> *
| 56> 
| 57> 
| 58>                          ****END OF INPUT****
================================================================================

                       *****************************
                       * Geometry Optimization Run *
                       *****************************

Geometry optimization settings:
Update method            Update   .... BFGS
Choice of coordinates    CoordSys .... Z-matrix Internals
Initial Hessian          InHess   .... Almoef's Model

Convergence Tolerances:
Energy Change            TolE     ....  1.0000e-06 Eh
Max. Gradient            TolMAXG  ....  1.0000e-04 Eh/bohr
RMS Gradient             TolRMSG  ....  3.0000e-05 Eh/bohr
Max. Displacement        TolMAXD  ....  1.0000e-03 bohr
RMS Displacement         TolRMSD  ....  6.0000e-04 bohr
Strict Convergence                ....  False
------------------------------------------------------------------------------
                        ORCA OPTIMIZATION COORDINATE SETUP
------------------------------------------------------------------------------

The optimization will be done in new redundant internal coordinates
Making redundant internal coordinates   ...  (new redundants) done
Evaluating the initial hessian          ...  (Almloef) done
Evaluating the coordinates              ...  done
Calculating the B-matrix                .... done
Calculating the G-matrix                .... done
Diagonalizing the G-matrix              .... done
Small eigenvalue found = 1.128e-03
Small eigenvalue found = 6.776e-03
Small eigenvalue found = 7.619e-03
Small eigenvalue found = 1.014e-02
Small eigenvalue found = 1.969e-02
Small eigenvalue found = 2.473e-02
The first mode is                       ....  128
The number of degrees of freedom        ....  135

    -----------------------------------------------------------------
                    Redundant Internal Coordinates


    -----------------------------------------------------------------
         Definition                    Initial Value    Approx d2E/dq
    -----------------------------------------------------------------
      1. B(C   1,C   0)                  1.3478         0.729465   
      2. B(C   2,C   1)                  1.5156         0.393863   
      3. B(C   3,C   2)                  1.5407         0.359178   
      4. B(C   4,C   3)                  1.3679         0.677731   
      5. B(C   5,C   4)                  1.5311         0.372129   
      6. B(C   5,C   0)                  1.5226         0.383814   
      7. B(C   6,C   3)                  1.4817         0.446129   
      8. B(C   7,C   6)                  1.3968         0.609461   
      9. B(C   8,C   7)                  1.4029         0.595871   
     10. B(C   9,C   8)                  1.3974         0.608144   
     11. B(C  10,C   9)                  1.3917         0.620966   
     12. B(C  11,C  10)                  1.4070         0.587030   
     13. B(C  11,C   6)                  1.4023         0.597095   
     14. B(S  12,C   9)                  1.7792         0.403196   
     15. B(C  13,S  12)                  1.7545         0.441482   
     16. B(O  14,C  13)                  1.2248         1.026802   
     17. B(C  15,C  13)                  1.5069         0.406640   
     18. B(C  16,C   4)                  1.4714         0.463285   
     19. B(C  17,C  16)                  1.4002         0.601841   
     20. B(C  18,C  17)                  1.4043         0.592875   
     21. B(C  19,C  18)                  1.4004         0.601422   
     22. B(C  20,C  19)                  1.3936         0.616510   
     23. B(C  21,C  20)                  1.4020         0.597803   
     24. B(C  21,C  16)                  1.3980         0.606803   
     25. B(S  22,C  19)                  1.7817         0.399495   
     26. B(C  23,S  22)                  1.7629         0.428168   
     27. B(O  24,C  23)                  1.2238         1.030661   
     28. B(C  25,C  23)                  1.5081         0.404893   
     29. B(C  26,C   5)                  1.5314         0.371690   
     30. B(C  26,C   2)                  1.5339         0.368326   
     31. B(H  27,C   0)                  1.0799         0.373712   
     32. B(H  28,C   1)                  1.0790         0.375007   
     33. B(H  29,C   2)                  1.0879         0.362823   
     34. B(H  30,C   5)                  1.0903         0.359738   
     35. B(H  31,O  24)                  4.6717         0.000001   
     36. B(H  31,C   7)                  1.0857         0.365777   
     37. B(H  32,C   8)                  1.0889         0.361498   
     38. B(H  33,C  10)                  1.0858         0.365645   
     39. B(H  34,C  11)                  1.0850         0.366782   
     40. B(H  35,C  15)                  1.0939         0.355032   
     41. B(H  36,C  15)                  1.0934         0.355609   
     42. B(H  37,C  15)                  1.0936         0.355400   
     43. B(H  38,C  17)                  1.0875         0.363393   
     44. B(H  39,C  18)                  1.0885         0.362031   
     45. B(H  40,C  20)                  1.0863         0.364975   
     46. B(H  41,C  21)                  1.0880         0.362772   
     47. B(H  42,C  25)                  1.0938         0.355056   
     48. B(H  43,C  25)                  1.0938         0.355153   
     49. B(H  44,C  25)                  1.0937         0.355206   
     50. B(H  45,C  26)                  1.0986         0.348959   
     51. B(H  46,C  26)                  1.1001         0.346967   
     52. A(C   1,C   0,C   5)          107.0540         0.410177   
     53. A(C   5,C   0,H  27)          126.1754         0.327760   
     54. A(C   1,C   0,H  27)          126.6895         0.365111   
     55. A(C   0,C   1,C   2)          106.6588         0.412062   
     56. A(C   0,C   1,H  28)          127.4429         0.365327   
     57. A(C   2,C   1,H  28)          125.7956         0.329349   
     58. A(C  26,C   2,H  29)          111.7724         0.323967   
     59. A(C   3,C   2,C  26)           98.7908         0.360052   
     60. A(C   1,C   2,C   3)          108.3401         0.364196   
     61. A(C   1,C   2,H  29)          116.1471         0.327559   
     62. A(C   1,C   2,C  26)           98.2172         0.365767   
     63. A(C   3,C   2,H  29)          120.0393         0.322633   
     64. A(C   4,C   3,C   6)          133.3280         0.415816   
     65. A(C   2,C   3,C   6)          121.1573         0.372068   
     66. A(C   2,C   3,C   4)          105.4796         0.400167   
     67. A(C   5,C   4,C  16)          119.5294         0.376794   
     68. A(C   3,C   4,C  16)          133.4516         0.418619   
     69. A(C   3,C   4,C   5)          107.0186         0.402672   
     70. A(C   0,C   5,C   4)          109.6184         0.364794   
     71. A(C   0,C   5,H  30)          116.4461         0.325710   
     72. A(C   4,C   5,C  26)           97.3213         0.362797   
     73. A(C   0,C   5,C  26)           97.8146         0.364720   
     74. A(C  26,C   5,H  30)          113.3446         0.323996   
     75. A(C   4,C   5,H  30)          118.7058         0.324059   
     76. A(C   7,C   6,C  11)          116.1370         0.429813   
     77. A(C   3,C   6,C  11)          121.4564         0.406579   
     78. A(C   3,C   6,C   7)          122.4022         0.408056   
     79. A(C   8,C   7,H  31)          117.1814         0.351476   
     80. A(C   6,C   7,H  31)          121.1162         0.352819   
     81. A(C   6,C   7,C   8)          121.6700         0.429655   
     82. A(C   7,C   8,H  32)          118.1067         0.350778   
     83. A(C   9,C   8,H  32)          120.5681         0.351989   
     84. A(C   7,C   8,C   9)          121.2996         0.429488   
     85. A(C   8,C   9,C  10)          117.3798         0.432682   
     86. A(C  10,C   9,S  12)          125.9008         0.424139   
     87. A(C   8,C   9,S  12)          116.5555         0.422560   
     88. A(C  11,C  10,H  33)          117.4667         0.350568   
     89. A(C   9,C  10,H  33)          121.5837         0.353917   
     90. A(C   9,C  10,C  11)          120.9142         0.429945   
     91. A(C   6,C  11,H  34)          121.5707         0.351761   
     92. A(C  10,C  11,H  34)          116.4634         0.350752   
     93. A(C   6,C  11,C  10)          121.9377         0.426933   
     94. A(C   9,S  12,C  13)          108.2528         0.421015   
     95. A(O  14,C  13,C  15)          121.7652         0.437692   
     96. A(S  12,C  13,C  15)          113.8142         0.399833   
     97. A(S  12,C  13,O  14)          124.4189         0.469180   
     98. A(C  13,C  15,H  35)          112.6610         0.328111   
     99. A(C  13,C  15,H  36)          109.3020         0.328199   
    100. A(H  36,C  15,H  37)          109.6477         0.289669   
    101. A(H  35,C  15,H  37)          108.1313         0.289596   
    102. A(C  13,C  15,H  37)          108.6975         0.328167   
    103. A(H  35,C  15,H  36)          108.3660         0.289622   
    104. A(C  17,C  16,C  21)          117.3311         0.430087   
    105. A(C   4,C  16,C  21)          121.4666         0.410474   
    106. A(C   4,C  16,C  17)          121.1928         0.409877   
    107. A(C  16,C  17,C  18)          120.9090         0.428299   
    108. A(C  18,C  17,H  38)          118.2360         0.350789   
    109. A(C  16,C  17,H  38)          120.8357         0.351680   
    110. A(C  17,C  18,C  19)          121.0580         0.428246   
    111. A(C  19,C  18,H  39)          120.4013         0.351415   
    112. A(C  17,C  18,H  39)          118.5322         0.350567   
    113. A(C  18,C  19,C  20)          117.8732         0.431261   
    114. A(C  20,C  19,S  22)          123.9523         0.422895   
    115. A(C  18,C  19,S  22)          118.0780         0.421028   
    116. A(C  19,C  20,C  21)          120.7625         0.430793   
    117. A(C  19,C  20,H  40)          121.2749         0.353375   
    118. A(C  21,C  20,H  40)          117.9496         0.351538   
    119. A(C  20,C  21,H  41)          118.1079         0.351178   
    120. A(C  16,C  21,H  41)          120.3399         0.352067   
    121. A(C  16,C  21,C  20)          121.4995         0.429568   
    122. A(C  19,S  22,C  23)          106.2842         0.418035   
    123. A(O  24,C  23,C  25)          122.0747         0.437649   
    124. A(S  22,C  23,C  25)          113.8889         0.397386   
    125. A(S  22,C  23,O  24)          124.0362         0.466875   
    126. A(H  43,C  25,H  44)          109.5137         0.289586   
    127. A(H  42,C  25,H  44)          108.0566         0.289574   
    128. A(C  23,C  25,H  44)          108.9897         0.327905   
    129. A(H  42,C  25,H  43)          108.5120         0.289567   
    130. A(C  23,C  25,H  43)          109.1924         0.327897   
    131. A(C  23,C  25,H  42)          112.5368         0.327882   
    132. A(H  45,C  26,H  46)          108.4036         0.287731   
    133. A(C   2,C  26,C   5)           93.2954         0.362161   
    134. A(C   5,C  26,H  46)          113.7414         0.322081   
    135. A(C   2,C  26,H  46)          113.6240         0.321602   
    136. A(C   5,C  26,H  45)          113.8600         0.322384   
    137. A(C   2,C  26,H  45)          113.4731         0.321904   
    138. D(C   2,C   1,C   0,H  27)   -176.8096         0.037750   
    139. D(C   2,C   1,C   0,C   5)      0.0622         0.037750   
    140. D(H  28,C   1,C   0,H  27)     -0.3532         0.037750   
    141. D(H  28,C   1,C   0,C   5)    176.5186         0.037750   
    142. D(H  29,C   2,C   1,C   0)   -155.1811         0.011529   
    143. D(C  26,C   2,C   1,C   0)    -35.9466         0.011529   
    144. D(C   3,C   2,C   1,H  28)   -110.3237         0.011529   
    145. D(H  29,C   2,C   1,H  28)     28.2875         0.011529   
    146. D(C   3,C   2,C   1,C   0)     66.2077         0.011529   
    147. D(C  26,C   2,C   1,H  28)    147.5220         0.011529   
    148. D(C   6,C   3,C   2,C  26)   -144.5253         0.009705   
    149. D(C   4,C   3,C   2,C  26)     33.5906         0.009705   
    150. D(C   6,C   3,C   2,C   1)    113.7256         0.009705   
    151. D(C   4,C   3,C   2,C   1)    -68.1585         0.009705   
    152. D(C   4,C   3,C   2,H  29)    155.1237         0.009705   
    153. D(C   6,C   3,C   2,H  29)    -22.9922         0.009705   
    154. D(C  16,C   4,C   3,C   6)      0.8279         0.032180   
    155. D(C  16,C   4,C   3,C   2)   -176.9555         0.032180   
    156. D(C   5,C   4,C   3,C   2)      3.2750         0.032180   
    157. D(C   5,C   4,C   3,C   6)   -178.9416         0.032180   
    158. D(C  26,C   5,C   4,C  16)    141.2705         0.010362   
    159. D(C   0,C   5,C   4,C  16)   -117.6990         0.010362   
    160. D(C  26,C   5,C   4,C   3)    -38.9218         0.010362   
    161. D(H  30,C   5,C   0,H  27)    -26.2403         0.010979   
    162. D(C  26,C   5,C   0,H  27)   -147.2369         0.010979   
    163. D(C   0,C   5,C   4,C   3)     62.1087         0.010362   
    164. D(C  26,C   5,C   0,C   1)     35.8706         0.010979   
    165. D(C   4,C   5,C   0,H  27)    112.0743         0.010979   
    166. D(H  30,C   5,C   0,C   1)    156.8672         0.010979   
    167. D(H  30,C   5,C   4,C   3)   -160.6477         0.010362   
    168. D(C   4,C   5,C   0,C   1)    -64.8182         0.010979   
    169. D(H  30,C   5,C   4,C  16)     19.5446         0.010362   
    170. D(C  11,C   6,C   3,C   4)   -160.7137         0.013572   
    171. D(C   7,C   6,C   3,C   4)     18.4922         0.013572   
    172. D(C  11,C   6,C   3,C   2)     16.7899         0.013572   
    173. D(C   7,C   6,C   3,C   2)   -164.0043         0.013572   
    174. D(H  31,C   7,C   6,C  11)   -172.9173         0.025651   
    175. D(H  31,C   7,C   6,C   3)      7.8373         0.025651   
    176. D(C   8,C   7,C   6,C  11)      9.2119         0.025651   
    177. D(C   8,C   7,C   6,C   3)   -170.0335         0.025651   
    178. D(H  32,C   8,C   7,H  31)     -4.4223         0.024459   
    179. D(H  32,C   8,C   7,C   6)    173.5286         0.024459   
    180. D(C   9,C   8,C   7,H  31)    177.4094         0.024459   
    181. D(C   9,C   8,C   7,C   6)     -4.6397         0.024459   
    182. D(S  12,C   9,C   8,H  32)     -4.8626         0.025534   
    183. D(S  12,C   9,C   8,C   7)    173.2609         0.025534   
    184. D(C  10,C   9,C   8,H  32)    179.5130         0.025534   
    185. D(C  10,C   9,C   8,C   7)     -2.3635         0.025534   
    186. D(H  33,C  10,C   9,S  12)      6.9364         0.026687   
    187. D(H  33,C  10,C   9,C   8)   -177.8965         0.026687   
    188. D(C  11,C  10,C   9,S  12)   -170.8472         0.026687   
    189. D(C  11,C  10,C   9,C   8)      4.3199         0.026687   
    190. D(H  34,C  11,C  10,H  33)      0.7982         0.023703   
    191. D(C   6,C  11,C  10,H  33)   -177.3013         0.023703   
    192. D(C   6,C  11,C  10,C   9)      0.5709         0.023703   
    193. D(H  34,C  11,C   6,C   7)    174.7569         0.024565   
    194. D(H  34,C  11,C   6,C   3)     -5.9900         0.024565   
    195. D(H  34,C  11,C  10,C   9)    178.6703         0.023703   
    196. D(C  10,C  11,C   6,C   7)     -7.2402         0.024565   
    197. D(C  10,C  11,C   6,C   3)    172.0129         0.024565   
    198. D(C  13,S  12,C   9,C   8)    157.8022         0.003864   
    199. D(C  13,S  12,C   9,C  10)    -26.9954         0.003864   
    200. D(O  14,C  13,S  12,C   9)     -6.2510         0.004356   
    201. D(C  15,C  13,S  12,C   9)    174.2265         0.004356   
    202. D(H  37,C  15,C  13,O  14)    -57.3024         0.012255   
    203. D(H  37,C  15,C  13,S  12)    122.2344         0.012255   
    204. D(H  36,C  15,C  13,O  14)     62.3437         0.012255   
    205. D(H  36,C  15,C  13,S  12)   -118.1195         0.012255   
    206. D(H  35,C  15,C  13,O  14)   -177.1251         0.012255   
    207. D(H  35,C  15,C  13,S  12)      2.4117         0.012255   
    208. D(C  21,C  16,C   4,C   5)   -141.9977         0.014619   
    209. D(C  21,C  16,C   4,C   3)     38.2556         0.014619   
    210. D(C  17,C  16,C   4,C   5)     36.8517         0.014619   
    211. D(C  17,C  16,C   4,C   3)   -142.8950         0.014619   
    212. D(H  38,C  17,C  16,C  21)    175.5145         0.024978   
    213. D(H  38,C  17,C  16,C   4)     -3.3808         0.024978   
    214. D(C  18,C  17,C  16,C  21)     -6.1121         0.024978   
    215. D(C  18,C  17,C  16,C   4)    174.9925         0.024978   
    216. D(H  39,C  18,C  17,H  38)     -0.9607         0.024201   
    217. D(H  39,C  18,C  17,C  16)   -179.3753         0.024201   
    218. D(C  19,C  18,C  17,H  38)    177.9862         0.024201   
    219. D(C  19,C  18,C  17,C  16)     -0.4285         0.024201   
    220. D(S  22,C  19,C  18,H  39)      0.8232         0.024942   
    221. D(S  22,C  19,C  18,C  17)   -178.1041         0.024942   
    222. D(C  20,C  19,C  18,H  39)   -175.7491         0.024942   
    223. D(C  20,C  19,C  18,C  17)      5.3237         0.024942   
    224. D(H  40,C  20,C  19,S  22)      1.3906         0.026283   
    225. D(H  40,C  20,C  19,C  18)    177.7444         0.026283   
    226. D(C  21,C  20,C  19,S  22)   -179.9480         0.026283   
    227. D(C  21,C  20,C  19,C  18)     -3.5943         0.026283   
    228. D(H  41,C  21,C  20,H  40)     -1.7641         0.024626   
    229. D(H  41,C  21,C  20,C  19)    179.5311         0.024626   
    230. D(C  16,C  21,C  20,H  40)    175.6065         0.024626   
    231. D(C  16,C  21,C  20,C  19)     -3.0984         0.024626   
    232. D(H  41,C  21,C  16,C  17)   -174.8060         0.025415   
    233. D(H  41,C  21,C  16,C   4)      4.0860         0.025415   
    234. D(C  20,C  21,C  16,C  17)      7.8813         0.025415   
    235. D(C  20,C  21,C  16,C   4)   -173.2266         0.025415   
    236. D(C  23,S  22,C  19,C  20)    -31.8777         0.003819   
    237. D(C  23,S  22,C  19,C  18)    151.7754         0.003819   
    238. D(C  25,C  23,S  22,C  19)    163.0893         0.004179   
    239. D(O  24,C  23,S  22,C  19)    -17.0239         0.004179   
    240. D(H  44,C  25,C  23,O  24)    -53.3797         0.012154   
    241. D(H  44,C  25,C  23,S  22)    126.5096         0.012154   
    242. D(H  43,C  25,C  23,O  24)     66.2132         0.012154   
    243. D(H  43,C  25,C  23,S  22)   -113.8975         0.012154   
    244. D(H  42,C  25,C  23,O  24)   -173.2276         0.012154   
    245. D(H  42,C  25,C  23,S  22)      6.6618         0.012154   
    246. D(H  46,C  26,C   5,H  30)     64.4120         0.011038   
    247. D(H  46,C  26,C   5,C   4)    -61.2420         0.011038   
    248. D(H  46,C  26,C   5,C   0)   -172.3004         0.011038   
    249. D(H  45,C  26,C   5,C   4)    173.8915         0.011038   
    250. D(H  45,C  26,C   5,C   0)     62.8331         0.011038   
    251. D(C   2,C  26,C   5,H  30)   -177.9534         0.011038   
    252. D(C   2,C  26,C   5,C   4)     56.3927         0.011038   
    253. D(C   2,C  26,C   5,C   0)    -54.6657         0.011038   
    254. D(H  46,C  26,C   2,H  29)    -64.7471         0.010851   
    255. D(H  46,C  26,C   2,C   3)     62.6418         0.010851   
    256. D(H  46,C  26,C   2,C   1)    172.7645         0.010851   
    257. D(H  45,C  26,C   2,H  29)     59.6977         0.010851   
    258. D(H  45,C  26,C   2,C   3)   -172.9134         0.010851   
    259. D(H  45,C  26,C   5,H  30)    -60.4546         0.011038   
    260. D(H  45,C  26,C   2,C   1)    -62.7907         0.010851   
    261. D(C   5,C  26,C   2,H  29)    177.5201         0.010851   
    262. D(C   5,C  26,C   2,C   3)    -55.0911         0.010851   
    263. D(C   5,C  26,C   2,C   1)     55.0316         0.010851   
    -----------------------------------------------------------------

Number of atoms                         .... 47
Number of degrees of freedom            .... 263

         *************************************************************
         *                GEOMETRY OPTIMIZATION CYCLE   1            *
         *************************************************************
---------------------------------
CARTESIAN COORDINATES (ANGSTROEM)
---------------------------------
  C      1.203070   -0.785160    0.489290
  C      1.236190    0.558590    0.588830
  C     -0.015470    1.075650   -0.091650
  C     -1.237180    0.617530    0.727680
  C     -1.290660   -0.740730    0.574980
  C     -0.072670   -1.146160   -0.259440
  C     -2.096230    1.595690    1.435230
  C     -2.996010    1.216710    2.434090
  C     -3.944490    2.112680    2.949610
  C     -3.967720    3.452570    2.553690
  C     -2.982070    3.875020    1.666680
  C     -2.059850    2.962270    1.122650
  S     -5.332110    4.431980    3.140930
  C     -4.858420    6.120600    3.090190
  O     -3.732470    6.515770    2.814250
  C     -5.972540    7.075630    3.432890
  C     -2.229380   -1.774920    1.037920
  C     -1.777070   -3.038310    1.437660
  C     -2.663700   -3.984770    1.976260
  C     -4.023350   -3.691020    2.137890
  C     -4.490230   -2.474270    1.644170
  C     -3.607920   -1.545610    1.074270
  S     -5.067280   -4.931570    2.876700
  C     -6.379800   -4.063670    3.671530
  O     -6.348550   -2.869860    3.938750
  C     -7.569320   -4.928290    4.005890
  C     -0.091930    0.043420   -1.223620
  H      1.915110   -1.480890    0.907790
  H      1.969510    1.160410    1.102840
  H      0.032690    2.092540   -0.475380
  H     -0.082210   -2.112150   -0.764880
  H     -3.011280    0.201950    2.819920
  H     -4.686450    1.728650    3.648050
  H     -2.915580    4.908590    1.340550
  H     -1.336400    3.365630    0.421840
  H     -6.899820    6.562000    3.702820
  H     -6.173500    7.720120    2.572770
  H     -5.661210    7.686180    4.285070
  H     -0.724840   -3.302890    1.363410
  H     -2.268590   -4.951310    2.283860
  H     -5.541020   -2.205940    1.707200
  H     -4.020040   -0.612690    0.695410
  H     -7.386310   -5.988220    3.807040
  H     -8.427240   -4.606030    3.408860
  H     -7.801880   -4.818020    5.068900
  H      0.768930    0.076930   -1.905250
  H     -1.012080    0.113270   -1.822530

----------------------------
CARTESIAN COORDINATES (A.U.)
----------------------------
  NO LB      ZA    FRAG     MASS         X           Y           Z
   0 C     6.0000    0    12.011    2.273473   -1.483737    0.924624
   1 C     6.0000    0    12.011    2.336061    1.055582    1.112727
   2 C     6.0000    0    12.011   -0.029234    2.032684   -0.173193
   3 C     6.0000    0    12.011   -2.337931    1.166963    1.375116
   4 C     6.0000    0    12.011   -2.438994   -1.399777    1.086555
   5 C     6.0000    0    12.011   -0.137326   -2.165929   -0.490271
   6 C     6.0000    0    12.011   -3.961301    3.015417    2.712192
   7 C     6.0000    0    12.011   -5.661638    2.299249    4.599763
   8 C     6.0000    0    12.011   -7.454006    3.992387    5.573955
   9 C     6.0000    0    12.011   -7.497904    6.524412    4.825775
  10 C     6.0000    0    12.011   -5.635296    7.322727    3.149569
  11 C     6.0000    0    12.011   -3.892552    5.597879    2.121501
  12 S    16.0000    0    32.060  -10.076228    8.375228    5.935498
  13 C     6.0000    0    12.011   -9.181083   11.566258    5.839613
  14 O     8.0000    0    15.999   -7.053346   12.313021    5.318162
  15 C     6.0000    0    12.011  -11.286465   13.371003    6.487222
  16 C     6.0000    0    12.011   -4.212918   -3.354113    1.961385
  17 C     6.0000    0    12.011   -3.358176   -5.741574    2.716784
  18 C     6.0000    0    12.011   -5.033664   -7.530124    3.734590
  19 C     6.0000    0    12.011   -7.603030   -6.975017    4.040027
  20 C     6.0000    0    12.011   -8.485305   -4.675693    3.107031
  21 C     6.0000    0    12.011   -6.817981   -2.920780    2.030076
  22 S    16.0000    0    32.060   -9.575771   -9.319317    5.436175
  23 C     6.0000    0    12.011  -12.056075   -7.679223    6.938186
  24 O     8.0000    0    15.999  -11.997021   -5.423249    7.443159
  25 C     6.0000    0    12.011  -14.303942   -9.313118    7.570035
  26 C     6.0000    0    12.011   -0.173723    0.082052   -2.312307
  27 H     1.0000    0     1.008    3.619033   -2.798477    1.715474
  28 H     1.0000    0     1.008    3.721835    2.192857    2.084066
  29 H     1.0000    0     1.008    0.061775    3.954328   -0.898338
  30 H     1.0000    0     1.008   -0.155354   -3.991385   -1.445414
  31 H     1.0000    0     1.008   -5.690495    0.381630    5.328877
  32 H     1.0000    0     1.008   -8.856107    3.266675    6.893815
  33 H     1.0000    0     1.008   -5.509648    9.275891    2.533272
  34 H     1.0000    0     1.008   -2.525430    6.360119    0.797162
  35 H     1.0000    0     1.008  -13.038770   12.400383    6.997316
  36 H     1.0000    0     1.008  -11.666224   14.588913    4.861831
  37 H     1.0000    0     1.008  -10.698136   14.524775    8.097609
  38 H     1.0000    0     1.008   -1.369749   -6.241558    2.576472
  39 H     1.0000    0     1.008   -4.287014   -9.356620    4.315870
  40 H     1.0000    0     1.008  -10.471010   -4.168622    3.226140
  41 H     1.0000    0     1.008   -7.596775   -1.157816    1.314134
  42 H     1.0000    0     1.008  -13.958103  -11.316096    7.194263
  43 H     1.0000    0     1.008  -15.925176   -8.704135    6.441812
  44 H     1.0000    0     1.008  -14.743417   -9.104738    9.578833
  45 H     1.0000    0     1.008    1.453067    0.145377   -3.600401
  46 H     1.0000    0     1.008   -1.912554    0.214049   -3.444083

--------------------------------
INTERNAL COORDINATES (ANGSTROEM)
--------------------------------
 C      0   0   0     0.000000000000     0.00000000     0.00000000
 C      1   0   0     1.347838717540     0.00000000     0.00000000
 C      2   1   0     1.515604443646   106.65877766     0.00000000
 C      3   2   1     1.540698188290   108.34011431    66.20772167
 C      4   3   2     1.367862430217   105.47958584   291.84151031
 C      1   2   3     1.522639208907   107.05397427     0.06221167
 C      4   3   2     1.481685152318   121.15731185   113.72561566
 C      7   4   3     1.396764542935   122.40222287   195.99571332
 C      8   7   4     1.402903211808   121.66996317   189.96654418
 C      9   8   7     1.397353745978   121.29963725   355.36028101
 C     10   9   8     1.391674051314   117.37983565   357.63646351
 C      7   4   3     1.402344699851   121.45637472    16.78986308
 S     10   9   8     1.779228719923   116.55548259   173.26090106
 C     13  10   9     1.754535342505   108.25284563   157.80216157
 O     14  13  10     1.224771658310   124.41887054   353.74904915
 C     14  13  10     1.506913721916   113.81420639   174.22645001
 C      5   4   3     1.471413483050   133.45157175   183.04450245
 C     17   5   4     1.400189521386   121.19282609   217.10499815
 C     18  17   5     1.404275346398   120.90900404   174.99254229
 C     19  18  17     1.400379035083   121.05801430   359.57152754
 C     20  19  18     1.393634433881   117.87323585     5.32365260
 C     17   5   4     1.397954552266   121.46659872    38.25557312
 S     20  19  18     1.781739140138   118.07801077   181.89592259
 C     23  20  19     1.762870922473   106.28416124   151.77542449
 O     24  23  20     1.223750549336   124.03624328   342.97612771
 C     24  23  20     1.508085602478   113.88894794   163.08930047
 C      6   1   2     1.531376699705    97.81463871    35.87056369
 H      1   2   3     1.079899738170   126.68945471   183.19037037
 H      2   1   3     1.078958671544   127.44286034   176.45642600
 H      3   2   1     1.087949158095   116.14713191   204.81894350
 H      6   1   2     1.090273949657   116.44605140   156.86719870
 H      8   7   4     1.085742059331   121.11620816     7.83731799
 H      9   8   7     1.088945414656   118.10666916   173.52856810
 H     11  10   9     1.085840062762   121.58372690   182.10354200
 H     12   7   4     1.084994860909   121.57074401   354.00999517
 H     16  14  13     1.093858391292   112.66104022     2.41168347
 H     16  14  13     1.093416067241   109.30200973   241.88050360
 H     16  14  13     1.093575979893   108.69745344   122.23438996
 H     18  17   5     1.087521775322   120.83569793   356.61919126
 H     19  18  17     1.088544552924   118.53223945   180.62467109
 H     21  20  19     1.086339446904   121.27489049   177.74438757
 H     22  17   5     1.087987830998   120.33993644     4.08604213
 H     26  24  23     1.093839836311   112.53680918     6.66176721
 H     26  24  23     1.093765539272   109.19244835   246.10248505
 H     26  24  23     1.093724776441   108.98967962   126.50962495
 H     27   6   1     1.098554648891   113.86001898    62.83308096
 H     27   6   1     1.100112827441   113.74142168   187.69962176

---------------------------
INTERNAL COORDINATES (A.U.)
---------------------------
 C      0   0   0     0.000000000000     0.00000000     0.00000000
 C      1   0   0     2.547046048846     0.00000000     0.00000000
 C      2   1   0     2.864077325845   106.65877766     0.00000000
 C      3   2   1     2.911497630897   108.34011431    66.20772167
 C      4   3   2     2.584885381991   105.47958584   291.84151031
 C      1   2   3     2.877371105604   107.05397427     0.06221167
 C      4   3   2     2.799979154579   121.15731185   113.72561566
 C      7   4   3     2.639502459719   122.40222287   195.99571332
 C      8   7   4     2.651102862715   121.66996317   189.96654418
 C      9   8   7     2.640615892108   121.29963725   355.36028101
 C     10   9   8     2.629882824668   117.37983565   357.63646351
 C      7   4   3     2.650047428074   121.45637472    16.78986308
 S     10   9   8     3.362255010262   116.55548259   173.26090106
 C     13  10   9     3.315591289621   108.25284563   157.80216157
 O     14  13  10     2.314483010795   124.41887054   353.74904915
 C     14  13  10     2.847654241870   113.81420639   174.22645001
 C      5   4   3     2.780568512723   133.45157175   183.04450245
 C     17   5   4     2.645974731006   121.19282609   217.10499815
 C     18  17   5     2.653695821309   120.90900404   174.99254229
 C     19  18  17     2.646332859992   121.05801430   359.57152754
 C     20  19  18     2.633587410838   117.87323585     5.32365260
 C     17   5   4     2.641751251450   121.46659872    38.25557312
 S     20  19  18     3.366999016949   118.07801077   181.89592259
 C     23  20  19     3.331343252927   106.28416124   151.77542449
 O     24  23  20     2.312553394481   124.03624328   342.97612771
 C     24  23  20     2.849868775192   113.88894794   163.08930047
 C      6   1   2     2.893882570311    97.81463871    35.87056369
 H      1   2   3     2.040714757235   126.68945471   183.19037037
 H      2   1   3     2.038936399038   127.44286034   176.45642600
 H      3   2   1     2.055925956430   116.14713191   204.81894350
 H      6   1   2     2.060319175800   116.44605140   156.86719870
 H      8   7   4     2.051755144215   121.11620816     7.83731799
 H      9   8   7     2.057808608489   118.10666916   173.52856810
 H     11  10   9     2.051940343861   121.58372690   182.10354200
 H     12   7   4     2.050343143831   121.57074401   354.00999517
 H     16  14  13     2.067092788834   112.66104022     2.41168347
 H     16  14  13     2.066256917514   109.30200973   241.88050360
 H     16  14  13     2.066559108633   108.69745344   122.23438996
 H     18  17   5     2.055118320035   120.83569793   356.61919126
 H     19  18  17     2.057051089598   118.53223945   180.62467109
 H     21  20  19     2.052884043124   121.27489049   177.74438757
 H     22  17   5     2.055999037625   120.33993644     4.08604213
 H     26  24  23     2.067057725000   112.53680918     6.66176721
 H     26  24  23     2.066917323946   109.19244835   246.10248505
 H     26  24  23     2.066840293357   108.98967962   126.50962495
 H     27   6   1     2.075967429550   113.86001898    62.83308096
 H     27   6   1     2.078911960277   113.74142168   187.69962176

---------------------
BASIS SET INFORMATION
---------------------
There are 4 groups of distinct atoms

 Group   1 Type C   : 17s4p1d contracted to 3s2p1d pattern {881/31/1}
 Group   2 Type S   : 34s15p1d contracted to 4s3p1d pattern {1111111/771/1}
 Group   3 Type O   : 17s4p1d contracted to 3s2p1d pattern {881/31/1}
 Group   4 Type H   : 4s1p contracted to 2s1p pattern {31/1}

Atom   0C    basis set group =>   1
Atom   1C    basis set group =>   1
Atom   2C    basis set group =>   1
Atom   3C    basis set group =>   1
Atom   4C    basis set group =>   1
Atom   5C    basis set group =>   1
Atom   6C    basis set group =>   1
Atom   7C    basis set group =>   1
Atom   8C    basis set group =>   1
Atom   9C    basis set group =>   1
Atom  10C    basis set group =>   1
Atom  11C    basis set group =>   1
Atom  12S    basis set group =>   2
Atom  13C    basis set group =>   1
Atom  14O    basis set group =>   3
Atom  15C    basis set group =>   1
Atom  16C    basis set group =>   1
Atom  17C    basis set group =>   1
Atom  18C    basis set group =>   1
Atom  19C    basis set group =>   1
Atom  20C    basis set group =>   1
Atom  21C    basis set group =>   1
Atom  22S    basis set group =>   2
Atom  23C    basis set group =>   1
Atom  24O    basis set group =>   3
Atom  25C    basis set group =>   1
Atom  26C    basis set group =>   1
Atom  27H    basis set group =>   4
Atom  28H    basis set group =>   4
Atom  29H    basis set group =>   4
Atom  30H    basis set group =>   4
Atom  31H    basis set group =>   4
Atom  32H    basis set group =>   4
Atom  33H    basis set group =>   4
Atom  34H    basis set group =>   4
Atom  35H    basis set group =>   4
Atom  36H    basis set group =>   4
Atom  37H    basis set group =>   4
Atom  38H    basis set group =>   4
Atom  39H    basis set group =>   4
Atom  40H    basis set group =>   4
Atom  41H    basis set group =>   4
Atom  42H    basis set group =>   4
Atom  43H    basis set group =>   4
Atom  44H    basis set group =>   4
Atom  45H    basis set group =>   4
Atom  46H    basis set group =>   4
---------------------------------
AUXILIARY/J BASIS SET INFORMATION
---------------------------------
There are 4 groups of distinct atoms

 Group   1 Type C   : 12s5p4d2f1g contracted to 6s4p3d1f1g pattern {711111/2111/211/2/1}
 Group   2 Type S   : 14s5p5d2f1g contracted to 8s4p3d1f1g pattern {71111111/2111/311/2/1}
 Group   3 Type O   : 12s5p4d2f1g contracted to 6s4p3d1f1g pattern {711111/2111/211/2/1}
 Group   4 Type H   : 5s2p1d contracted to 3s1p1d pattern {311/2/1}

Atom   0C    basis set group =>   1
Atom   1C    basis set group =>   1
Atom   2C    basis set group =>   1
Atom   3C    basis set group =>   1
Atom   4C    basis set group =>   1
Atom   5C    basis set group =>   1
Atom   6C    basis set group =>   1
Atom   7C    basis set group =>   1
Atom   8C    basis set group =>   1
Atom   9C    basis set group =>   1
Atom  10C    basis set group =>   1
Atom  11C    basis set group =>   1
Atom  12S    basis set group =>   2
Atom  13C    basis set group =>   1
Atom  14O    basis set group =>   3
Atom  15C    basis set group =>   1
Atom  16C    basis set group =>   1
Atom  17C    basis set group =>   1
Atom  18C    basis set group =>   1
Atom  19C    basis set group =>   1
Atom  20C    basis set group =>   1
Atom  21C    basis set group =>   1
Atom  22S    basis set group =>   2
Atom  23C    basis set group =>   1
Atom  24O    basis set group =>   3
Atom  25C    basis set group =>   1
Atom  26C    basis set group =>   1
Atom  27H    basis set group =>   4
Atom  28H    basis set group =>   4
Atom  29H    basis set group =>   4
Atom  30H    basis set group =>   4
Atom  31H    basis set group =>   4
Atom  32H    basis set group =>   4
Atom  33H    basis set group =>   4
Atom  34H    basis set group =>   4
Atom  35H    basis set group =>   4
Atom  36H    basis set group =>   4
Atom  37H    basis set group =>   4
Atom  38H    basis set group =>   4
Atom  39H    basis set group =>   4
Atom  40H    basis set group =>   4
Atom  41H    basis set group =>   4
Atom  42H    basis set group =>   4
Atom  43H    basis set group =>   4
Atom  44H    basis set group =>   4
Atom  45H    basis set group =>   4
Atom  46H    basis set group =>   4


           ************************************************************
           *        Program running with 4 parallel MPI-processes     *
           *              working on a common directory               *
           ************************************************************
------------------------------------------------------------------------------
                           ORCA GTO INTEGRAL CALCULATION
                           -- RI-GTO INTEGRALS CHOSEN --
------------------------------------------------------------------------------
------------------------------------------------------------------------------
                   ___                                                        
                  /   \      - P O W E R E D   B Y -                         
                 /     \                                                     
                 |  |  |   _    _      __       _____    __    __             
                 |  |  |  | |  | |    /  \     |  _  \  |  |  /  |          
                  \  \/   | |  | |   /    \    | | | |  |  | /  /          
                 / \  \   | |__| |  /  /\  \   | |_| |  |  |/  /          
                |  |  |   |  __  | /  /__\  \  |    /   |      \           
                |  |  |   | |  | | |   __   |  |    \   |  |\   \          
                \     /   | |  | | |  |  |  |  | |\  \  |  | \   \       
                 \___/    |_|  |_| |__|  |__|  |_| \__\ |__|  \__/        
                                                                              
                      - O R C A' S   B I G   F R I E N D -                    
                                      &                                       
                       - I N T E G R A L  F E E D E R -                       
                                                                              
 v1 FN, 2020, v2 2021                                                         
------------------------------------------------------------------------------


Reading SHARK input file NBD_cc-pVDZ.SHARKINP.tmp ... ok
----------------------
SHARK INTEGRAL PACKAGE
----------------------

Number of atoms                             ...     47
Number of basis functions                   ...    486
Number of shells                            ...    226
Maximum angular momentum                    ...      2
Integral batch strategy                     ... SHARK/LIBINT Hybrid
RI-J (if used) integral strategy            ... SPLIT-RIJ (Revised 2003 algorithm where possible)
Printlevel                                  ...      1
Contraction scheme used                     ... SEGMENTED contraction
Coulomb Range Separation                    ... NOT USED
Exchange Range Separation                   ... NOT USED
Finite Nucleus Model                        ... NOT USED
Auxiliary Coulomb fitting basis             ... AVAILABLE
   # of basis functions in Aux-J            ...   1547
   # of shells in Aux-J                     ...    509
   Maximum angular momentum in Aux-J        ...      4
Auxiliary J/K fitting basis                 ... NOT available
Auxiliary Correlation fitting basis         ... NOT available
Auxiliary 'external' fitting basis          ... NOT available
Integral threshold                          ...     1.000000e-12
Primitive cut-off                           ...     1.000000e-14
Primitive pair pre-selection threshold      ...     1.000000e-14

Calculating pre-screening integrals         ... done (  0.7 sec) Dimension = 226
Organizing shell pair data                  ... done (  0.1 sec)
Shell pair information
Total number of shell pairs                 ...     25651
Shell pairs after pre-screening             ...     17419
Total number of primitive shell pairs       ...    283574
Primitive shell pairs kept                  ...     84374
          la=0 lb=0:   5213 shell pairs
          la=1 lb=0:   6420 shell pairs
          la=1 lb=1:   2031 shell pairs
          la=2 lb=0:   2168 shell pairs
          la=2 lb=1:   1348 shell pairs
          la=2 lb=2:    239 shell pairs

Calculating one electron integrals          ... done (  0.1 sec)
Calculating RI/J V-Matrix + Cholesky decomp.... done (  0.1 sec)
Calculating Nuclear repulsion               ... done (  0.0 sec) ENN=   2516.094783516186 Eh

SHARK setup successfully completed in   1.1 seconds

Maximum memory used throughout the entire GTOINT-calculation: 45.4 MB


           ************************************************************
           *        Program running with 4 parallel MPI-processes     *
           *              working on a common directory               *
           ************************************************************
-------------------------------------------------------------------------------
                                 ORCA SCF
-------------------------------------------------------------------------------

------------
SCF SETTINGS
------------
Hamiltonian:
 Density Functional     Method          .... DFT(GTOs)
 Exchange Functional    Exchange        .... M062X
 Correlation Functional Correlation     .... M062X
 Gradients option       PostSCFGGA      .... off
 Hybrid DFT is turned on
   Fraction HF Exchange ScalHFX         ....  0.540000
   Scaling of DF-GGA-X  ScalDFX         ....  0.460000
   Scaling of DF-GGA-C  ScalDFC         ....  1.000000
   Scaling of DF-LDA-C  ScalLDAC        ....  1.000000
   Perturbative correction              ....  0.000000
   Density functional embedding theory  .... OFF
 RI-approximation to the Coulomb term is turned on
   Number of AuxJ basis functions       .... 1547
   RIJ-COSX (HFX calculated with COS-X)).... on


General Settings:
 Integral files         IntName         .... NBD_cc-pVDZ
 Hartree-Fock type      HFTyp           .... RHF
 Total Charge           Charge          ....    0
 Multiplicity           Mult            ....    1
 Number of Electrons    NEL             ....  206
 Basis Dimension        Dim             ....  486
 Nuclear Repulsion      ENuc            ....   2516.0947835162 Eh

Convergence Acceleration:
 DIIS                   CNVDIIS         .... on
   Start iteration      DIISMaxIt       ....    12
   Startup error        DIISStart       ....  0.200000
   # of expansion vecs  DIISMaxEq       ....     5
   Bias factor          DIISBfac        ....   1.050
   Max. coefficient     DIISMaxC        ....  10.000
 Trust-Rad. Augm. Hess. CNVTRAH         .... auto
   Auto Start mean grad. ratio tolernc. ....  1.125000
   Auto Start start iteration           ....    20
   Auto Start num. interpolation iter.  ....    10
   Max. Number of Micro iterations      ....    16
   Max. Number of Macro iterations      .... Maxiter - #DIIS iter
   Number of Davidson start vectors     ....     2
   Converg. threshold I  (grad. norm)   ....   2.000e-06
   Converg. threshold II (energy diff.) ....   1.000e-09
   Grad. Scal. Fac. for Micro threshold ....   0.100
   Minimum threshold for Micro iter.    ....   0.010
   NR start threshold (gradient norm)   ....   0.001
   Initial trust radius                 ....   0.400
   Minimum AH scaling param. (alpha)    ....   1.000
   Maximum AH scaling param. (alpha)    .... 1000.000
   Orbital update algorithm             .... Taylor
   White noise on init. David. guess    .... on
   Maximum white noise                  ....   0.010
   Quad. conv. algorithm                .... NR
 SOSCF                  CNVSOSCF        .... on
   Start iteration      SOSCFMaxIt      ....   150
   Startup grad/error   SOSCFStart      ....  0.003300
 Level Shifting         CNVShift        .... on
   Level shift para.    LevelShift      ....    0.2500
   Turn off err/grad.   ShiftErr        ....    0.0010
 Zerner damping         CNVZerner       .... off
 Static damping         CNVDamp         .... on
   Fraction old density DampFac         ....    0.7000
   Max. Damping (<1)    DampMax         ....    0.9800
   Min. Damping (>=0)   DampMin         ....    0.0000
   Turn off err/grad.   DampErr         ....    0.1000
 Fernandez-Rico         CNVRico         .... off

SCF Procedure:
 Maximum # iterations   MaxIter         ....   125
 SCF integral mode      SCFMode         .... Direct
   Integral package                     .... SHARK and LIBINT hybrid scheme
 Reset frequency        DirectResetFreq ....    20
 Integral Threshold     Thresh          ....  1.000e-12 Eh
 Primitive CutOff       TCut            ....  1.000e-14 Eh

Convergence Tolerance:
 Convergence Check Mode ConvCheckMode   .... Total+1el-Energy
 Convergence forced     ConvForced      .... 0
 Energy Change          TolE            ....  1.000e-09 Eh
 1-El. energy change                    ....  1.000e-06 Eh
 Orbital Gradient       TolG            ....  2.000e-06
 Orbital Rotation angle TolX            ....  2.000e-06
 DIIS Error             TolErr          ....  1.000e-08


Diagonalization of the overlap matrix:
Smallest eigenvalue                        ... 2.425e-04
Time for diagonalization                   ...    0.098 sec
Threshold for overlap eigenvalues          ... 1.000e-08
Number of eigenvalues below threshold      ... 0
Time for construction of square roots      ...    0.034 sec
Total time needed                          ...    0.133 sec

Time for model grid setup =    0.730 sec

------------------------------
INITIAL GUESS: MODEL POTENTIAL
------------------------------
Loading Hartree-Fock densities                     ... done
Calculating cut-offs                               ... done
Initializing the effective Hamiltonian             ... done
Setting up the integral package (SHARK)            ... done
Starting the Coulomb interaction                   ... done (   0.8 sec)
Reading the grid                                   ... done
Mapping shells                                     ... done
Starting the XC term evaluation                    ... done (   0.4 sec)
  promolecular density results
     # of electrons  =    205.993986421
     EX              =   -189.633451980
     EC              =     -7.080849119
     EX+EC           =   -196.714301098
Transforming the Hamiltonian                       ... done (   0.0 sec)
Diagonalizing the Hamiltonian                      ... done (   0.0 sec)
Back transforming the eigenvectors                 ... done (   0.0 sec)
Now organizing SCF variables                       ... done
                      ------------------
                      INITIAL GUESS DONE (   2.0 sec)
                      ------------------
-------------------
DFT GRID GENERATION
-------------------

General Integration Accuracy     IntAcc      ... 4.388
Radial Grid Type                 RadialGrid  ... OptM3 with GC (2021)
Angular Grid (max. ang.)         AngularGrid ... 4 (Lebedev-302)
Angular grid pruning method      GridPruning ... 4 (adaptive)
Weight generation scheme         WeightScheme... Becke
Basis function cutoff            BFCut       ... 1.0000e-12
Integration weight cutoff        WCut        ... 1.0000e-14
Angular grids for H and He will be reduced by one unit
Partially contracted basis set               ... off
Rotationally invariant grid construction     ... off

Total number of grid points                  ...   227415
Total number of batches                      ...     3579
Average number of points per batch           ...       63
Average number of grid points per atom       ...     4839
Time for grid setup =    2.831 sec

--------------------
COSX GRID GENERATION
--------------------

GRIDX 1
-------
General Integration Accuracy     IntAcc      ... 3.816
Radial Grid Type                 RadialGrid  ... OptM3 with GC (2021)
Angular Grid (max. ang.)         AngularGrid ... 1 (Lebedev-50)
Angular grid pruning method      GridPruning ... 4 (adaptive)
Weight generation scheme         WeightScheme... Becke
Basis function cutoff            BFCut       ... 1.0000e-12
Integration weight cutoff        WCut        ... 1.0000e-14
Angular grids for H and He will be reduced by one unit
Partially contracted basis set               ... on
Rotationally invariant grid construction     ... off

Total number of grid points                  ...    28732
Total number of batches                      ...      467
Average number of points per batch           ...       61
Average number of grid points per atom       ...      611
UseSFitting                                  ... on

GRIDX 2
-------
General Integration Accuracy     IntAcc      ... 4.020
Radial Grid Type                 RadialGrid  ... OptM3 with GC (2021)
Angular Grid (max. ang.)         AngularGrid ... 2 (Lebedev-110)
Angular grid pruning method      GridPruning ... 4 (adaptive)
Weight generation scheme         WeightScheme... Becke
Basis function cutoff            BFCut       ... 1.0000e-12
Integration weight cutoff        WCut        ... 1.0000e-14
Angular grids for H and He will be reduced by one unit
Partially contracted basis set               ... on
Rotationally invariant grid construction     ... off

Total number of grid points                  ...    62418
Total number of batches                      ...      998
Average number of points per batch           ...       62
Average number of grid points per atom       ...     1328
UseSFitting                                  ... on

GRIDX 3
-------
General Integration Accuracy     IntAcc      ... 4.338
Radial Grid Type                 RadialGrid  ... OptM3 with GC (2021)
Angular Grid (max. ang.)         AngularGrid ... 3 (Lebedev-194)
Angular grid pruning method      GridPruning ... 4 (adaptive)
Weight generation scheme         WeightScheme... Becke
Basis function cutoff            BFCut       ... 1.0000e-12
Integration weight cutoff        WCut        ... 1.0000e-14
Angular grids for H and He will be reduced by one unit
Partially contracted basis set               ... on
Rotationally invariant grid construction     ... off

Total number of grid points                  ...   137527
Total number of batches                      ...     2168
Average number of points per batch           ...       63
Average number of grid points per atom       ...     2926
UseSFitting                                  ... on

Time for X-Grid setup             =    3.286 sec

 re-compute Schwartz prescreening matrix in partically contracted basis (1) ...done (   0.630 sec)
--------------
SCF ITERATIONS
--------------
ITER       Energy         Delta-E        Max-DP      RMS-DP      [F,P]     Damp
               ***  Starting incremental Fock matrix formation  ***
  0  -1834.2576742366   0.000000000000 0.09162822  0.00130818  0.2641898 0.7000
  1  -1834.5405314006  -0.282857164023 0.05668439  0.00095042  0.1166439 0.7000
                               ***Turning on DIIS***
  2  -1834.6639267708  -0.123395370185 0.07659240  0.00177970  0.0460125 0.0000
  3  -1834.8640192434  -0.200092472521 0.03831438  0.00062034  0.0573088 0.0000
  4  -1834.9013227299  -0.037303486537 0.01361770  0.00017021  0.0158173 0.0000
  5  -1834.9031368770  -0.001814147064 0.00550469  0.00006464  0.0089083 0.0000
                      *** Initiating the SOSCF procedure ***
                           *** Shutting down DIIS ***
                      *** Re-Reading the Fockian *** 
                      *** Removing any level shift *** 
ITER      Energy       Delta-E        Grad      Rot      Max-DP    RMS-DP
  6  -1834.90344457  -0.0003076904  0.000962  0.000962  0.001747  0.000031
               *** Restarting incremental Fock matrix formation ***
  7  -1834.90343872   0.0000058501  0.000584  0.002179  0.001378  0.000029
  8  -1834.90346082  -0.0000220986  0.000247  0.002109  0.001277  0.000023
  9  -1834.90346201  -0.0000011938  0.000255  0.000870  0.000421  0.000011
 10  -1834.90346575  -0.0000037362  0.000038  0.000170  0.000123  0.000003
 11  -1834.90346573   0.0000000152  0.000030  0.000068  0.000070  0.000001
 12  -1834.90346586  -0.0000001334  0.000003  0.000011  0.000015  0.000000
 13  -1834.90346587  -0.0000000019  0.000004  0.000007  0.000008  0.000000
 14  -1834.90346587  -0.0000000007  0.000001  0.000002  0.000004  0.000000
 15  -1834.90346587   0.0000000006  0.000001  0.000001  0.000002  0.000000
                  ***Gradient check signals convergence***
              ***Rediagonalizing the Fockian in SOSCF/NRSCF***

               *****************************************************
               *                     SUCCESS                       *
               *           SCF CONVERGED AFTER  16 CYCLES          *
               *****************************************************

Old exchange energy                            =   -104.167170223 Eh
New exchange energy                            =   -104.167129162 Eh
Exchange energy change after final integration =      0.000041061 Eh
Total energy after final integration           =  -1834.903424806 Eh
Final COS-X integration done in                =    40.218 sec

----------------
TOTAL SCF ENERGY
----------------

Total Energy       :        -1834.90342481 Eh          -49930.26059 eV

Components:
Nuclear Repulsion  :         2516.09478352 Eh           68466.41982 eV
Electronic Energy  :        -4350.99820832 Eh         -118396.68042 eV
One Electron Energy:        -7511.98636713 Eh         -204411.54113 eV
Two Electron Energy:         3160.98815881 Eh           86014.86071 eV
Max COSX asymmetry :            0.00000623 Eh               0.00017 eV

Virial components:
Potential Energy   :        -3661.91904637 Eh          -99645.88315 eV
Kinetic Energy     :         1827.01562156 Eh           49715.62256 eV
Virial Ratio       :            2.00431732


DFT components:
N(Alpha)           :      102.999994446066 electrons
N(Beta)            :      102.999994446066 electrons
N(Total)           :      205.999988892132 electrons
E(XC)              :      -96.334216121224 Eh       
DFET-embed. en.    :        0.000000000000 Eh       

---------------
SCF CONVERGENCE
---------------

  Last Energy change         ...   -4.1700e-10  Tolerance :   1.0000e-09
  Last MAX-Density change    ...    6.2172e-15  Tolerance :   1.0000e-08
  Last RMS-Density change    ...    4.6041e-17  Tolerance :   1.0000e-09
  Last Orbital Gradient      ...    1.9176e-07  Tolerance :   2.0000e-06
  Last Orbital Rotation      ...    6.7592e-07  Tolerance :   2.0000e-06

             **** THE GBW FILE WAS UPDATED (NBD_cc-pVDZ.gbw) ****
             **** DENSITY NBD_cc-pVDZ.scfp WAS UPDATED ****
             **** ENERGY FILE WAS UPDATED (NBD_cc-pVDZ.en.tmp) ****
             **** THE GBW FILE WAS UPDATED (NBD_cc-pVDZ.gbw) ****
             **** DENSITY NBD_cc-pVDZ.scfp WAS UPDATED ****
----------------
ORBITAL ENERGIES
----------------

  NO   OCC          E(Eh)            E(eV) 
   0   2.0000     -89.941016     -2447.4195 
   1   2.0000     -89.939961     -2447.3908 
   2   2.0000     -19.639711      -534.4237 
   3   2.0000     -19.635342      -534.3048 
   4   2.0000     -10.670324      -290.3543 
   5   2.0000     -10.667114      -290.2669 
   6   2.0000     -10.593271      -288.2575 
   7   2.0000     -10.589394      -288.1521 
   8   2.0000     -10.569610      -287.6137 
   9   2.0000     -10.568538      -287.5845 
  10   2.0000     -10.568366      -287.5799 
  11   2.0000     -10.566955      -287.5415 
  12   2.0000     -10.565874      -287.5120 
  13   2.0000     -10.564898      -287.4855 
  14   2.0000     -10.563179      -287.4387 
  15   2.0000     -10.562746      -287.4269 
  16   2.0000     -10.562018      -287.4071 
  17   2.0000     -10.560932      -287.3776 
  18   2.0000     -10.558895      -287.3221 
  19   2.0000     -10.558671      -287.3160 
  20   2.0000     -10.558223      -287.3038 
  21   2.0000     -10.557663      -287.2886 
  22   2.0000     -10.556445      -287.2555 
  23   2.0000     -10.555079      -287.2183 
  24   2.0000     -10.548173      -287.0304 
  25   2.0000     -10.546880      -286.9952 
  26   2.0000     -10.545792      -286.9656 
  27   2.0000      -8.287579      -225.5165 
  28   2.0000      -8.286590      -225.4896 
  29   2.0000      -6.205480      -168.8597 
  30   2.0000      -6.204457      -168.8319 
  31   2.0000      -6.202846      -168.7880 
  32   2.0000      -6.201740      -168.7579 
  33   2.0000      -6.200108      -168.7135 
  34   2.0000      -6.199222      -168.6894 
  35   2.0000      -1.171746       -31.8848 
  36   2.0000      -1.167902       -31.7802 
  37   2.0000      -1.011086       -27.5130 
  38   2.0000      -0.974806       -26.5258 
  39   2.0000      -0.971264       -26.4294 
  40   2.0000      -0.912074       -24.8188 
  41   2.0000      -0.906312       -24.6620 
  42   2.0000      -0.875061       -23.8116 
  43   2.0000      -0.865402       -23.5488 
  44   2.0000      -0.848096       -23.0779 
  45   2.0000      -0.841960       -22.9109 
  46   2.0000      -0.839848       -22.8534 
  47   2.0000      -0.821704       -22.3597 
  48   2.0000      -0.805778       -21.9263 
  49   2.0000      -0.791628       -21.5413 
  50   2.0000      -0.775163       -21.0933 
  51   2.0000      -0.706160       -19.2156 
  52   2.0000      -0.700065       -19.0497 
  53   2.0000      -0.693250       -18.8643 
  54   2.0000      -0.683380       -18.5957 
  55   2.0000      -0.640113       -17.4184 
  56   2.0000      -0.632727       -17.2174 
  57   2.0000      -0.628397       -17.0996 
  58   2.0000      -0.625210       -17.0128 
  59   2.0000      -0.606305       -16.4984 
  60   2.0000      -0.592492       -16.1225 
  61   2.0000      -0.571287       -15.5455 
  62   2.0000      -0.560072       -15.2403 
  63   2.0000      -0.555042       -15.1035 
  64   2.0000      -0.540215       -14.7000 
  65   2.0000      -0.536625       -14.6023 
  66   2.0000      -0.528783       -14.3889 
  67   2.0000      -0.526353       -14.3228 
  68   2.0000      -0.522525       -14.2186 
  69   2.0000      -0.517827       -14.0908 
  70   2.0000      -0.514930       -14.0120 
  71   2.0000      -0.514085       -13.9890 
  72   2.0000      -0.501839       -13.6557 
  73   2.0000      -0.498202       -13.5568 
  74   2.0000      -0.488783       -13.3005 
  75   2.0000      -0.482202       -13.1214 
  76   2.0000      -0.468228       -12.7411 
  77   2.0000      -0.467323       -12.7165 
  78   2.0000      -0.463917       -12.6238 
  79   2.0000      -0.458215       -12.4687 
  80   2.0000      -0.448907       -12.2154 
  81   2.0000      -0.443958       -12.0807 
  82   2.0000      -0.438122       -11.9219 
  83   2.0000      -0.436428       -11.8758 
  84   2.0000      -0.432705       -11.7745 
  85   2.0000      -0.429422       -11.6852 
  86   2.0000      -0.415340       -11.3020 
  87   2.0000      -0.409721       -11.1491 
  88   2.0000      -0.406389       -11.0584 
  89   2.0000      -0.396863       -10.7992 
  90   2.0000      -0.392669       -10.6851 
  91   2.0000      -0.388677       -10.5764 
  92   2.0000      -0.382362       -10.4046 
  93   2.0000      -0.365178        -9.9370 
  94   2.0000      -0.355737        -9.6801 
  95   2.0000      -0.327869        -8.9218 
  96   2.0000      -0.323589        -8.8053 
  97   2.0000      -0.315832        -8.5942 
  98   2.0000      -0.311198        -8.4681 
  99   2.0000      -0.301873        -8.2144 
 100   2.0000      -0.296521        -8.0688 
 101   2.0000      -0.284448        -7.7402 
 102   2.0000      -0.244865        -6.6631 
 103   0.0000      -0.033318        -0.9066 
 104   0.0000       0.004091         0.1113 
 105   0.0000       0.013966         0.3800 
 106   0.0000       0.020792         0.5658 
 107   0.0000       0.027999         0.7619 
 108   0.0000       0.039517         1.0753 
 109   0.0000       0.045829         1.2471 
 110   0.0000       0.075716         2.0603 
 111   0.0000       0.077716         2.1148 
 112   0.0000       0.101335         2.7575 
 113   0.0000       0.103438         2.8147 
 114   0.0000       0.107202         2.9171 
 115   0.0000       0.111963         3.0467 
 116   0.0000       0.114447         3.1143 
 117   0.0000       0.117659         3.2017 
 118   0.0000       0.130965         3.5637 
 119   0.0000       0.138059         3.7568 
 120   0.0000       0.146405         3.9839 
 121   0.0000       0.150018         4.0822 
 122   0.0000       0.153822         4.1857 
 123   0.0000       0.161130         4.3846 
 124   0.0000       0.169081         4.6009 
 125   0.0000       0.170425         4.6375 
 126   0.0000       0.171758         4.6738 
 127   0.0000       0.172959         4.7064 
 128   0.0000       0.174526         4.7491 
 129   0.0000       0.176649         4.8069 
 130   0.0000       0.181018         4.9258 
 131   0.0000       0.184822         5.0293 
 132   0.0000       0.195110         5.3092 
 133   0.0000       0.197653         5.3784 
 134   0.0000       0.201950         5.4953 
 135   0.0000       0.211035         5.7426 
 136   0.0000       0.217346         5.9143 
 137   0.0000       0.233774         6.3613 
 138   0.0000       0.239059         6.5051 
 139   0.0000       0.247298         6.7293 
 140   0.0000       0.249873         6.7994 
 141   0.0000       0.253639         6.9019 
 142   0.0000       0.264210         7.1895 
 143   0.0000       0.287056         7.8112 
 144   0.0000       0.291338         7.9277 
 145   0.0000       0.297225         8.0879 
 146   0.0000       0.311063         8.4645 
 147   0.0000       0.313099         8.5199 
 148   0.0000       0.319111         8.6835 
 149   0.0000       0.323019         8.7898 
 150   0.0000       0.341868         9.3027 
 151   0.0000       0.350294         9.5320 
 152   0.0000       0.359223         9.7750 
 153   0.0000       0.363614         9.8945 
 154   0.0000       0.369164        10.0455 
 155   0.0000       0.373559        10.1651 
 156   0.0000       0.381380        10.3779 
 157   0.0000       0.420062        11.4305 
 158   0.0000       0.425057        11.5664 
 159   0.0000       0.435433        11.8487 
 160   0.0000       0.449219        12.2239 
 161   0.0000       0.454187        12.3591 
 162   0.0000       0.458188        12.4679 
 163   0.0000       0.462713        12.5911 
 164   0.0000       0.472004        12.8439 
 165   0.0000       0.478198        13.0124 
 166   0.0000       0.482040        13.1170 
 167   0.0000       0.489400        13.3173 
 168   0.0000       0.496627        13.5139 
 169   0.0000       0.499876        13.6023 
 170   0.0000       0.502699        13.6791 
 171   0.0000       0.508418        13.8348 
 172   0.0000       0.511848        13.9281 
 173   0.0000       0.517751        14.0887 
 174   0.0000       0.518754        14.1160 
 175   0.0000       0.522553        14.2194 
 176   0.0000       0.528367        14.3776 
 177   0.0000       0.531622        14.4662 
 178   0.0000       0.537061        14.6142 
 179   0.0000       0.538949        14.6656 
 180   0.0000       0.541398        14.7322 
 181   0.0000       0.543257        14.7828 
 182   0.0000       0.544998        14.8301 
 183   0.0000       0.550305        14.9746 
 184   0.0000       0.558862        15.2074 
 185   0.0000       0.559974        15.2377 
 186   0.0000       0.562427        15.3044 
 187   0.0000       0.563397        15.3308 
 188   0.0000       0.565317        15.3830 
 189   0.0000       0.573097        15.5947 
 190   0.0000       0.576545        15.6886 
 191   0.0000       0.578740        15.7483 
 192   0.0000       0.582035        15.8380 
 193   0.0000       0.583196        15.8696 
 194   0.0000       0.586437        15.9578 
 195   0.0000       0.592711        16.1285 
 196   0.0000       0.598098        16.2751 
 197   0.0000       0.607766        16.5381 
 198   0.0000       0.610065        16.6007 
 199   0.0000       0.616787        16.7836 
 200   0.0000       0.626335        17.0434 
 201   0.0000       0.631789        17.1919 
 202   0.0000       0.631995        17.1975 
 203   0.0000       0.636768        17.3273 
 204   0.0000       0.640030        17.4161 
 205   0.0000       0.645632        17.5685 
 206   0.0000       0.651151        17.7187 
 207   0.0000       0.656060        17.8523 
 208   0.0000       0.661087        17.9891 
 209   0.0000       0.666414        18.1340 
 210   0.0000       0.675035        18.3686 
 211   0.0000       0.675884        18.3917 
 212   0.0000       0.677289        18.4300 
 213   0.0000       0.684438        18.6245 
 214   0.0000       0.685293        18.6478 
 215   0.0000       0.689023        18.7493 
 216   0.0000       0.692477        18.8433 
 217   0.0000       0.695254        18.9188 
 218   0.0000       0.701820        19.0975 
 219   0.0000       0.704432        19.1686 
 220   0.0000       0.706891        19.2355 
 221   0.0000       0.707565        19.2538 
 222   0.0000       0.715161        19.4605 
 223   0.0000       0.719290        19.5729 
 224   0.0000       0.721495        19.6329 
 225   0.0000       0.724889        19.7252 
 226   0.0000       0.729101        19.8399 
 227   0.0000       0.733849        19.9690 
 228   0.0000       0.738782        20.1033 
 229   0.0000       0.744977        20.2719 
 230   0.0000       0.747321        20.3356 
 231   0.0000       0.751597        20.4520 
 232   0.0000       0.755517        20.5587 
 233   0.0000       0.761869        20.7315 
 234   0.0000       0.762639        20.7525 
 235   0.0000       0.771423        20.9915 
 236   0.0000       0.776173        21.1208 
 237   0.0000       0.781931        21.2774 
 238   0.0000       0.789271        21.4772 
 239   0.0000       0.792627        21.5685 
 240   0.0000       0.798322        21.7235 
 241   0.0000       0.811095        22.0710 
 242   0.0000       0.822794        22.3894 
 243   0.0000       0.836270        22.7561 
 244   0.0000       0.841803        22.9066 
 245   0.0000       0.870202        23.6794 
[...]
 37:    501.50   0.000922    4.66  0.000574  (-0.021770 -0.007949  0.006049)
 38:    516.90   0.001218    6.16  0.000735  (-0.020310 -0.003730 -0.017579)
 39:    529.45   0.000591    2.99  0.000348  (-0.006973 -0.015958 -0.006699)
 40:    533.35   0.000269    1.36  0.000158  ( 0.012168  0.001472  0.002721)
 41:    545.11   0.000717    3.62  0.000411  ( 0.015968 -0.010868 -0.006126)
 42:    567.41   0.000487    2.46  0.000268  (-0.011966  0.010465 -0.003912)
 43:    600.29   0.001753    8.86  0.000911  (-0.011262 -0.020292 -0.019310)
 44:    601.87   0.000520    2.63  0.000270  ( 0.009121  0.007099 -0.011670)
 45:    621.73   0.016318   82.46  0.008190  ( 0.066095  0.007696 -0.061340)
 46:    630.45   0.020030  101.22  0.009915  (-0.003891 -0.094600 -0.030826)
 47:    639.40   0.000612    3.09  0.000299  (-0.008215 -0.014845  0.003294)
 48:    648.22   0.000244    1.23  0.000117  (-0.000197 -0.003488 -0.010253)
 49:    699.08   0.000751    3.80  0.000335  (-0.012073 -0.012576  0.005599)
 50:    724.27   0.000370    1.87  0.000159  (-0.000149  0.012615 -0.000344)
 51:    735.67   0.005825   29.44  0.002471  ( 0.041899  0.011501 -0.024145)
 52:    745.62   0.000187    0.94  0.000078  (-0.003678  0.002117  0.007750)
 53:    758.17   0.000285    1.44  0.000117  (-0.000597  0.010362  0.003100)
 54:    762.21   0.004501   22.75  0.001843  ( 0.034293  0.000565 -0.025818)
 55:    807.48   0.002896   14.64  0.001119  (-0.015542 -0.028897 -0.006540)
 56:    831.84   0.002581   13.04  0.000968  ( 0.025083 -0.007189 -0.016956)
 57:    849.16   0.003399   17.18  0.001249  ( 0.010106  0.010366  0.032242)
 58:    857.30   0.008597   43.45  0.003129  (-0.003773 -0.036118 -0.042551)
 59:    860.62   0.000859    4.34  0.000312  ( 0.009777  0.012810  0.007201)
 60:    866.91   0.000688    3.48  0.000248  ( 0.012959  0.006934  0.005635)
 61:    894.18   0.000050    0.25  0.000018  (-0.000939  0.002514 -0.003222)
 62:    918.69   0.000548    2.77  0.000186  ( 0.005101 -0.002994 -0.012296)
 63:    930.66   0.000466    2.36  0.000156  (-0.001215 -0.012115  0.002835)
 64:    953.47   0.000032    0.16  0.000011  (-0.000828 -0.001819 -0.002554)
 65:    955.05   0.000226    1.14  0.000074  (-0.007358  0.001172  0.004277)
 66:    969.79   0.007168   36.22  0.002306  ( 0.012916  0.043492  0.015749)
 67:    974.77   0.000951    4.80  0.000304  (-0.002455 -0.015864 -0.006832)
 68:    980.00   0.000363    1.84  0.000116  (-0.009950 -0.004078  0.000077)
 69:    984.04   0.000057    0.29  0.000018  ( 0.000345  0.003792  0.001881)
 70:    992.23   0.003330   16.83  0.001047  ( 0.026682 -0.001895 -0.018214)
 71:    993.84   0.004560   23.04  0.001432  (-0.030023  0.006250  0.022167)
 72:    996.43   0.000057    0.29  0.000018  (-0.000263 -0.002551 -0.003338)
 73:    999.98   0.000102    0.52  0.000032  (-0.002350  0.005099 -0.000656)
 74:   1002.41   0.001585    8.01  0.000494  ( 0.002906  0.009247  0.019991)
 75:   1018.10   0.000873    4.41  0.000268  (-0.000187 -0.013475  0.009270)
 76:   1027.69   0.004407   22.27  0.001338  (-0.009178 -0.035393  0.001181)
 77:   1032.82   0.001645    8.31  0.000497  (-0.011371  0.016232  0.010210)
 78:   1043.57   0.000986    4.98  0.000295  ( 0.015334 -0.003597 -0.006841)
 79:   1067.14   0.000203    1.03  0.000059  (-0.002520 -0.006049 -0.004053)
 80:   1098.01   0.000175    0.89  0.000050  ( 0.003663  0.001989  0.005692)
 81:   1119.02   0.041493  209.69  0.011571  ( 0.080358  0.012924 -0.070335)
 82:   1122.89   0.000727    3.67  0.000202  (-0.002456  0.003517  0.013553)
 83:   1132.29   0.031582  159.60  0.008704  ( 0.001161  0.089515  0.026264)
 84:   1133.95   0.002001   10.11  0.000551  (-0.003636 -0.014757 -0.017883)
 85:   1142.63   0.004003   20.23  0.001093  ( 0.023055  0.005934 -0.022947)
 86:   1142.80   0.001467    7.42  0.000401  ( 0.008201 -0.014408  0.011220)
 87:   1148.46   0.018241   92.18  0.004956  (-0.005148 -0.066297 -0.023123)
 88:   1182.14   0.000149    0.75  0.000039  ( 0.001297  0.006129 -0.000212)
 89:   1198.65   0.000159    0.80  0.000041  (-0.002675  0.004050  0.004210)
 90:   1206.35   0.000110    0.55  0.000028  ( 0.001804  0.004556 -0.002085)
 91:   1231.89   0.000561    2.83  0.000142  ( 0.011671  0.002021 -0.001318)
 92:   1253.70   0.000170    0.86  0.000042  ( 0.002011 -0.006183 -0.000005)
 93:   1261.31   0.000152    0.77  0.000037  (-0.001791  0.000892  0.005786)
 94:   1270.34   0.000979    4.95  0.000241  ( 0.001398 -0.009078 -0.012498)
 95:   1270.78   0.000796    4.02  0.000196  (-0.000377 -0.013422  0.003907)
 96:   1307.52   0.000025    0.13  0.000006  (-0.000691  0.001154  0.002028)
 97:   1315.24   0.000033    0.17  0.000008  ( 0.002565 -0.000237 -0.001134)
 98:   1320.01   0.003200   16.17  0.000756  ( 0.002511  0.027314  0.002027)
 99:   1332.66   0.000514    2.60  0.000120  (-0.002857  0.009131 -0.005363)
100:   1336.57   0.000083    0.42  0.000019  ( 0.003848  0.000330 -0.002117)
101:   1362.55   0.005210   26.33  0.001193  (-0.027043 -0.008955  0.019536)
102:   1365.68   0.007531   38.06  0.001721  ( 0.012794 -0.031380 -0.023926)
103:   1387.09   0.000846    4.27  0.000190  (-0.001299  0.013635 -0.001635)
104:   1437.34   0.001838    9.29  0.000399  (-0.012823 -0.005188 -0.014414)
105:   1437.74   0.002296   11.60  0.000498  ( 0.021726 -0.000015 -0.005131)
106:   1442.39   0.002340   11.83  0.000506  (-0.018947 -0.003003  0.011759)
107:   1443.88   0.001989   10.05  0.000430  (-0.009228  0.013322 -0.012934)
108:   1446.09   0.004038   20.41  0.000871  ( 0.006438  0.027328 -0.009116)
109:   1452.41   0.002418   12.22  0.000520  (-0.010748  0.012286 -0.015910)
110:   1471.13   0.000562    2.84  0.000119  (-0.002362 -0.000884  0.010623)
111:   1532.09   0.003770   19.05  0.000768  (-0.024320  0.000238  0.013282)
112:   1548.01   0.008673   43.83  0.001748  ( 0.001380  0.041786  0.000608)
113:   1642.02   0.000068    0.34  0.000013  (-0.002043  0.002941  0.000355)
114:   1644.99   0.000362    1.83  0.000069  ( 0.000438  0.007830 -0.002692)
115:   1675.58   0.001313    6.64  0.000245  (-0.015394 -0.002125  0.001744)
116:   1684.41   0.000675    3.41  0.000125  ( 0.008444  0.006645  0.003101)
117:   1687.47   0.002044   10.33  0.000378  (-0.002534  0.019195  0.001764)
118:   1736.81   0.001816    9.18  0.000326  (-0.016691 -0.005141  0.004611)
119:   1865.69   0.035368  178.74  0.005916  (-0.021644  0.058537  0.044954)
120:   1873.70   0.043247  218.55  0.007203  ( 0.063618  0.055731 -0.007046)
121:   3079.86   0.000073    0.37  0.000007  (-0.001556  0.002195  0.000372)
122:   3081.34   0.000107    0.54  0.000011  ( 0.001937  0.002456 -0.001013)
123:   3093.84   0.007425   37.52  0.000749  (-0.008991 -0.000625  0.025839)
124:   3157.37   0.005850   29.56  0.000578  ( 0.002128 -0.023126 -0.006232)
125:   3161.61   0.002349   11.87  0.000232  (-0.001693 -0.012982  0.007775)
126:   3165.95   0.005704   28.82  0.000562  (-0.023640 -0.001390 -0.001186)
127:   3172.05   0.000156    0.79  0.000015  (-0.003095  0.002401 -0.000077)
128:   3177.06   0.000044    0.22  0.000004  (-0.000157 -0.001968  0.000648)
129:   3197.90   0.000242    1.22  0.000024  (-0.000055 -0.004598 -0.001569)
130:   3203.11   0.000496    2.51  0.000048  (-0.000391 -0.006482 -0.002477)
131:   3212.23   0.000929    4.69  0.000090  ( 0.008518  0.003482 -0.002359)
132:   3216.23   0.001084    5.48  0.000105  (-0.006838  0.001759  0.007437)
133:   3222.06   0.000205    1.03  0.000020  (-0.001045  0.004319  0.000265)
134:   3224.46   0.000304    1.54  0.000029  (-0.000533 -0.005123  0.001713)
135:   3230.12   0.000666    3.36  0.000064  (-0.006645  0.004480 -0.000312)
136:   3236.60   0.000126    0.63  0.000012  ( 0.001066 -0.002589  0.002067)
137:   3241.74   0.000193    0.98  0.000019  (-0.000514  0.004175 -0.000943)
138:   3244.65   0.000220    1.11  0.000021  ( 0.000420 -0.003523  0.002923)
139:   3245.16   0.000118    0.59  0.000011  (-0.002253 -0.000710 -0.002394)
140:   3269.04   0.000703    3.55  0.000067  (-0.007155 -0.000330 -0.003978)

* The epsilon (eps) is given for a Dirac delta lineshape.
** The dipole moment derivative (T) already includes vibrational overlap.

The first frequency considered to be a vibration is 7
The total number of vibrations considered is 134


--------------------------
THERMOCHEMISTRY AT 298.15K
--------------------------

Temperature         ... 298.15 K
Pressure            ... 1.00 atm
Total Mass          ... 392.53 AMU

Throughout the following assumptions are being made:
  (1) The electronic state is orbitally nondegenerate
  (2) There are no thermally accessible electronically excited states
  (3) Hindered rotations indicated by low frequency modes are not
      treated as such but are treated as vibrations and this may
      cause some error
  (4) All equations used are the standard statistical mechanics
      equations for an ideal gas
  (5) All vibrations are strictly harmonic

freq.      16.22  E(vib)   ...       0.57 
freq.      25.59  E(vib)   ...       0.56 
freq.      28.46  E(vib)   ...       0.55 
freq.      37.72  E(vib)   ...       0.54 
freq.      46.78  E(vib)   ...       0.53 
freq.      58.01  E(vib)   ...       0.51 
freq.      68.30  E(vib)   ...       0.50 
freq.      75.22  E(vib)   ...       0.49 
freq.      80.78  E(vib)   ...       0.48 
freq.      84.66  E(vib)   ...       0.48 
freq.      97.85  E(vib)   ...       0.46 
freq.     131.60  E(vib)   ...       0.42 
freq.     144.70  E(vib)   ...       0.41 
freq.     164.36  E(vib)   ...       0.39 
freq.     186.17  E(vib)   ...       0.37 
freq.     209.12  E(vib)   ...       0.34 
freq.     219.32  E(vib)   ...       0.33 
freq.     253.45  E(vib)   ...       0.30 
freq.     281.48  E(vib)   ...       0.28 
freq.     322.60  E(vib)   ...       0.25 
freq.     333.50  E(vib)   ...       0.24 
freq.     337.24  E(vib)   ...       0.24 
freq.     343.23  E(vib)   ...       0.23 
freq.     370.35  E(vib)   ...       0.21 
freq.     414.56  E(vib)   ...       0.19 
freq.     420.68  E(vib)   ...       0.18 
freq.     424.11  E(vib)   ...       0.18 
freq.     467.89  E(vib)   ...       0.16 
freq.     471.12  E(vib)   ...       0.15 
freq.     498.44  E(vib)   ...       0.14 
freq.     501.50  E(vib)   ...       0.14 
freq.     516.90  E(vib)   ...       0.13 
freq.     529.45  E(vib)   ...       0.13 
freq.     533.35  E(vib)   ...       0.13 
freq.     545.11  E(vib)   ...       0.12 
freq.     567.41  E(vib)   ...       0.11 
freq.     600.29  E(vib)   ...       0.10 
freq.     601.87  E(vib)   ...       0.10 
freq.     621.73  E(vib)   ...       0.09 
freq.     630.45  E(vib)   ...       0.09 
freq.     639.40  E(vib)   ...       0.09 
freq.     648.22  E(vib)   ...       0.08 
freq.     699.08  E(vib)   ...       0.07 
freq.     724.27  E(vib)   ...       0.06 
freq.     735.67  E(vib)   ...       0.06 
freq.     745.62  E(vib)   ...       0.06 
freq.     758.17  E(vib)   ...       0.06 
freq.     762.21  E(vib)   ...       0.06 
freq.     807.48  E(vib)   ...       0.05 
freq.     831.84  E(vib)   ...       0.04 
freq.     849.16  E(vib)   ...       0.04 
freq.     857.30  E(vib)   ...       0.04 
freq.     860.62  E(vib)   ...       0.04 
freq.     866.91  E(vib)   ...       0.04 
freq.     894.18  E(vib)   ...       0.03 
freq.     918.69  E(vib)   ...       0.03 
freq.     930.66  E(vib)   ...       0.03 
freq.     953.47  E(vib)   ...       0.03 
freq.     955.05  E(vib)   ...       0.03 
freq.     969.79  E(vib)   ...       0.03 
freq.     974.77  E(vib)   ...       0.03 
freq.     980.00  E(vib)   ...       0.02 
freq.     984.04  E(vib)   ...       0.02 
freq.     992.23  E(vib)   ...       0.02 
freq.     993.84  E(vib)   ...       0.02 
freq.     996.43  E(vib)   ...       0.02 
freq.     999.98  E(vib)   ...       0.02 
freq.    1002.41  E(vib)   ...       0.02 
freq.    1018.10  E(vib)   ...       0.02 
freq.    1027.69  E(vib)   ...       0.02 
freq.    1032.82  E(vib)   ...       0.02 
freq.    1043.57  E(vib)   ...       0.02 
freq.    1067.14  E(vib)   ...       0.02 
freq.    1098.01  E(vib)   ...       0.02 
freq.    1119.02  E(vib)   ...       0.01 
freq.    1122.89  E(vib)   ...       0.01 
freq.    1132.29  E(vib)   ...       0.01 
freq.    1133.95  E(vib)   ...       0.01 
freq.    1142.63  E(vib)   ...       0.01 
freq.    1142.80  E(vib)   ...       0.01 
freq.    1148.46  E(vib)   ...       0.01 
freq.    1182.14  E(vib)   ...       0.01 
freq.    1198.65  E(vib)   ...       0.01 
freq.    1206.35  E(vib)   ...       0.01 
freq.    1231.89  E(vib)   ...       0.01 
freq.    1253.70  E(vib)   ...       0.01 
freq.    1261.31  E(vib)   ...       0.01 
freq.    1270.34  E(vib)   ...       0.01 
freq.    1270.78  E(vib)   ...       0.01 
freq.    1307.52  E(vib)   ...       0.01 
freq.    1315.24  E(vib)   ...       0.01 
freq.    1320.01  E(vib)   ...       0.01 
freq.    1332.66  E(vib)   ...       0.01 
freq.    1336.57  E(vib)   ...       0.01 
freq.    1362.55  E(vib)   ...       0.01 
freq.    1365.68  E(vib)   ...       0.01 
freq.    1387.09  E(vib)   ...       0.00 
freq.    1437.34  E(vib)   ...       0.00 
freq.    1437.74  E(vib)   ...       0.00 
freq.    1442.39  E(vib)   ...       0.00 
freq.    1443.88  E(vib)   ...       0.00 
freq.    1446.09  E(vib)   ...       0.00 
freq.    1452.41  E(vib)   ...       0.00 
freq.    1471.13  E(vib)   ...       0.00 
freq.    1532.09  E(vib)   ...       0.00 
freq.    1548.01  E(vib)   ...       0.00 
freq.    1642.02  E(vib)   ...       0.00 
freq.    1644.99  E(vib)   ...       0.00 
freq.    1675.58  E(vib)   ...       0.00 
freq.    1684.41  E(vib)   ...       0.00 
freq.    1687.47  E(vib)   ...       0.00 
freq.    1736.81  E(vib)   ...       0.00 
freq.    1865.69  E(vib)   ...       0.00 
freq.    1873.70  E(vib)   ...       0.00 
freq.    3079.86  E(vib)   ...       0.00 
freq.    3081.34  E(vib)   ...       0.00 
freq.    3093.84  E(vib)   ...       0.00 
freq.    3157.37  E(vib)   ...       0.00 
freq.    3161.61  E(vib)   ...       0.00 
freq.    3165.95  E(vib)   ...       0.00 
freq.    3172.05  E(vib)   ...       0.00 
freq.    3177.06  E(vib)   ...       0.00 
freq.    3197.90  E(vib)   ...       0.00 
freq.    3203.11  E(vib)   ...       0.00 
freq.    3212.23  E(vib)   ...       0.00 
freq.    3216.23  E(vib)   ...       0.00 
freq.    3222.06  E(vib)   ...       0.00 
freq.    3224.46  E(vib)   ...       0.00 
freq.    3230.12  E(vib)   ...       0.00 
freq.    3236.60  E(vib)   ...       0.00 
freq.    3241.74  E(vib)   ...       0.00 
freq.    3244.65  E(vib)   ...       0.00 
freq.    3245.16  E(vib)   ...       0.00 
freq.    3269.04  E(vib)   ...       0.00 

------------
INNER ENERGY
------------

The inner energy is: U= E(el) + E(ZPE) + E(vib) + E(rot) + E(trans)
    E(el)   - is the total energy from the electronic structure calculation
              = E(kin-el) + E(nuc-el) + E(el-el) + E(nuc-nuc)
    E(ZPE)  - the the zero temperature vibrational energy from the frequency calculation
    E(vib)  - the the finite temperature correction to E(ZPE) due to population
              of excited vibrational states
    E(rot)  - is the rotational thermal energy
    E(trans)- is the translational thermal energy

Summary of contributions to the inner energy U:
Electronic energy                ...  -1834.92436678 Eh
Zero point energy                ...      0.36969863 Eh     231.99 kcal/mol
Thermal vibrational correction   ...      0.02130887 Eh      13.37 kcal/mol
Thermal rotational correction    ...      0.00141627 Eh       0.89 kcal/mol
Thermal translational correction ...      0.00141627 Eh       0.89 kcal/mol
-----------------------------------------------------------------------
Total thermal energy                  -1834.53052673 Eh


Summary of corrections to the electronic energy:
(perhaps to be used in another calculation)
Total thermal correction                  0.02414141 Eh      15.15 kcal/mol
Non-thermal (ZPE) correction              0.36969863 Eh     231.99 kcal/mol
-----------------------------------------------------------------------
Total correction                          0.39384005 Eh     247.14 kcal/mol


--------
ENTHALPY
--------

The enthalpy is H = U + kB*T
                kB is Boltzmann's constant
Total free energy                 ...  -1834.53052673 Eh 
Thermal Enthalpy correction       ...      0.00094421 Eh       0.59 kcal/mol
-----------------------------------------------------------------------
Total Enthalpy                    ...  -1834.52958252 Eh


Note: Only C1 symmetry has been detected, increase convergence thresholds 
      if your molecule has a higher symmetry. Symmetry factor of 1.0 is   
      used for the rotational entropy correction. 
 

Note: Rotational entropy computed according to Herzberg 
Infrared and Raman Spectra, Chapter V,1, Van Nostrand Reinhold, 1945 
Point Group:  C1, Symmetry Number:   1  
Rotational constants in cm-1:     0.006276     0.003171     0.002203 

Vibrational entropy computed according to the QRRHO of S. Grimme
Chem.Eur.J. 2012 18 9955


-------
ENTROPY
-------

The entropy contributions are T*S = T*(S(el)+S(vib)+S(rot)+S(trans))
     S(el)   - electronic entropy
     S(vib)  - vibrational entropy
     S(rot)  - rotational entropy
     S(trans)- translational entropy
The entropies will be listed as multiplied by the temperature to get
units of energy

Electronic entropy                ...      0.00000000 Eh      0.00 kcal/mol
Vibrational entropy               ...      0.03828751 Eh     24.03 kcal/mol
Rotational entropy                ...      0.01750924 Eh     10.99 kcal/mol
Translational entropy             ...      0.02080792 Eh     13.06 kcal/mol
-----------------------------------------------------------------------
Final entropy term                ...      0.07660466 Eh     48.07 kcal/mol

In case the symmetry of your molecule has not been determined correctly
or in case you have a reason to use a different symmetry number we print 
out the resulting rotational entropy values for sn=1,12 :
 --------------------------------------------------------
|  sn= 1 | S(rot)=       0.01750924 Eh     10.99 kcal/mol|
|  sn= 2 | S(rot)=       0.01685478 Eh     10.58 kcal/mol|
|  sn= 3 | S(rot)=       0.01647195 Eh     10.34 kcal/mol|
|  sn= 4 | S(rot)=       0.01620033 Eh     10.17 kcal/mol|
|  sn= 5 | S(rot)=       0.01598964 Eh     10.03 kcal/mol|
|  sn= 6 | S(rot)=       0.01581749 Eh      9.93 kcal/mol|
|  sn= 7 | S(rot)=       0.01567195 Eh      9.83 kcal/mol|
|  sn= 8 | S(rot)=       0.01554587 Eh      9.76 kcal/mol|
|  sn= 9 | S(rot)=       0.01543466 Eh      9.69 kcal/mol|
|  sn=10 | S(rot)=       0.01533518 Eh      9.62 kcal/mol|
|  sn=11 | S(rot)=       0.01524519 Eh      9.57 kcal/mol|
|  sn=12 | S(rot)=       0.01516304 Eh      9.51 kcal/mol|
 --------------------------------------------------------


-------------------
GIBBS FREE ENERGY
-------------------

The Gibbs free energy is G = H - T*S

Total enthalpy                    ...  -1834.52958252 Eh 
Total entropy correction          ...     -0.07660466 Eh    -48.07 kcal/mol
-----------------------------------------------------------------------
Final Gibbs free energy         ...  -1834.60618719 Eh

For completeness - the Gibbs free energy minus the electronic energy
G-E(el)                           ...      0.31817959 Eh    199.66 kcal/mol


Timings for individual modules:

Sum of individual times         ...    16667.727 sec (= 277.795 min)
GTO integral calculation        ...       45.777 sec (=   0.763 min)   0.3 %
SCF iterations                  ...     9191.481 sec (= 153.191 min)  55.1 %
SCF Gradient evaluation         ...     2589.935 sec (=  43.166 min)  15.5 %
Geometry relaxation             ...        5.910 sec (=   0.099 min)   0.0 %
Analytical frequency calculation...     4834.624 sec (=  80.577 min)  29.0 %
                             ****ORCA TERMINATED NORMALLY****
TOTAL RUN TIME: 0 days 4 hours 37 minutes 59 seconds 665 msec
