Running on  hostname
Wed Dec  1 17:32:35 CET 2021

                                 *****************
                                 * O   R   C   A *
                                 *****************

                                            #,                                       
                                            ###                                      
                                            ####                                     
                                            #####                                    
                                            ######                                   
                                           ########,                                 
                                     ,,################,,,,,                         
                               ,,#################################,,                 
                          ,,##########################################,,             
                       ,#########################################, ''#####,          
                    ,#############################################,,   '####,        
                  ,##################################################,,,,####,       
                ,###########''''           ''''###############################       
              ,#####''   ,,,,##########,,,,          '''####'''          '####       
            ,##' ,,,,###########################,,,                        '##       
           ' ,,###''''                  '''############,,,                           
         ,,##''                                '''############,,,,        ,,,,,,###''
      ,#''                                            '''#######################'''  
     '                                                          ''''####''''         
             ,#######,   #######,   ,#######,      ##                                
            ,#'     '#,  ##    ##  ,#'     '#,    #''#        ######   ,####,        
            ##       ##  ##   ,#'  ##            #'  '#       #        #'  '#        
            ##       ##  #######   ##           ,######,      #####,   #    #        
            '#,     ,#'  ##    ##  '#,     ,#' ,#      #,         ##   #,  ,#        
             '#######'   ##     ##  '#######'  #'      '#     #####' # '####'        



                  #######################################################
                  #                        -***-                        #
                  #          Department of theory and spectroscopy      #
                  #    Directorship and core code : Frank Neese         #
                  #        Max Planck Institute fuer Kohlenforschung    #
                  #                Kaiser Wilhelm Platz 1               #
                  #                 D-45470 Muelheim/Ruhr               #
                  #                      Germany                        #
                  #                                                     #
                  #                  All rights reserved                #
                  #                        -***-                        #
                  #######################################################


                         Program Version 5.0.1 -  RELEASE  -


 With contributions from (in alphabetic order):
   Daniel Aravena         : Magnetic Suceptibility
   Michael Atanasov       : Ab Initio Ligand Field Theory (pilot matlab implementation)
   Alexander A. Auer      : GIAO ZORA, VPT2 properties, NMR spectrum
   Ute Becker             : Parallelization
   Giovanni Bistoni       : ED, misc. LED, open-shell LED, HFLD
   Martin Brehm           : Molecular dynamics
   Dmytro Bykov           : SCF Hessian
   Vijay G. Chilkuri      : MRCI spin determinant printing, contributions to CSF-ICE
   Dipayan Datta          : RHF DLPNO-CCSD density
   Achintya Kumar Dutta   : EOM-CC, STEOM-CC
   Dmitry Ganyushin       : Spin-Orbit,Spin-Spin,Magnetic field MRCI
   Miquel Garcia          : C-PCM and meta-GGA Hessian, CC/C-PCM, Gaussian charge scheme
   Yang Guo               : DLPNO-NEVPT2, F12-NEVPT2, CIM, IAO-localization
   Andreas Hansen         : Spin unrestricted coupled pair/coupled cluster methods
   Benjamin Helmich-Paris : MC-RPA, TRAH-SCF, COSX integrals
   Lee Huntington         : MR-EOM, pCC
   Robert Izsak           : Overlap fitted RIJCOSX, COSX-SCS-MP3, EOM
   Marcus Kettner         : VPT2
   Christian Kollmar      : KDIIS, OOCD, Brueckner-CCSD(T), CCSD density, CASPT2, CASPT2-K
   Simone Kossmann        : Meta GGA functionals, TD-DFT gradient, OOMP2, MP2 Hessian
   Martin Krupicka        : Initial AUTO-CI
   Lucas Lang             : DCDCAS
   Marvin Lechner         : AUTO-CI (C++ implementation), FIC-MRCC
   Dagmar Lenk            : GEPOL surface, SMD
   Dimitrios Liakos       : Extrapolation schemes; Compound Job, initial MDCI parallelization
   Dimitrios Manganas     : Further ROCIS development; embedding schemes
   Dimitrios Pantazis     : SARC Basis sets
   Anastasios Papadopoulos: AUTO-CI, single reference methods and gradients
   Taras Petrenko         : DFT Hessian,TD-DFT gradient, ASA, ECA, R-Raman, ABS, FL, XAS/XES, NRVS
   Peter Pinski           : DLPNO-MP2, DLPNO-MP2 Gradient
   Christoph Reimann      : Effective Core Potentials
   Marius Retegan         : Local ZFS, SOC
   Christoph Riplinger    : Optimizer, TS searches, QM/MM, DLPNO-CCSD(T), (RO)-DLPNO pert. Triples
   Tobias Risthaus        : Range-separated hybrids, TD-DFT gradient, RPA, STAB
   Michael Roemelt        : Original ROCIS implementation
   Masaaki Saitow         : Open-shell DLPNO-CCSD energy and density
   Barbara Sandhoefer     : DKH picture change effects
   Avijit Sen             : IP-ROCIS
   Kantharuban Sivalingam : CASSCF convergence, NEVPT2, FIC-MRCI
   Bernardo de Souza      : ESD, SOC TD-DFT
   Georgi Stoychev        : AutoAux, RI-MP2 NMR, DLPNO-MP2 response
   Willem Van den Heuvel  : Paramagnetic NMR
   Boris Wezisla          : Elementary symmetry handling
   Frank Wennmohs         : Technical directorship


 We gratefully acknowledge several colleagues who have allowed us to
 interface, adapt or use parts of their codes:
   Stefan Grimme, W. Hujo, H. Kruse, P. Pracht,  : VdW corrections, initial TS optimization,
                  C. Bannwarth, S. Ehlert          DFT functionals, gCP, sTDA/sTD-DF
   Ed Valeev, F. Pavosevic, A. Kumar             : LibInt (2-el integral package), F12 methods
   Garnet Chan, S. Sharma, J. Yang, R. Olivares  : DMRG
   Ulf Ekstrom                                   : XCFun DFT Library
   Mihaly Kallay                                 : mrcc  (arbitrary order and MRCC methods)
   Jiri Pittner, Ondrej Demel                    : Mk-CCSD
   Frank Weinhold                                : gennbo (NPA and NBO analysis)
   Christopher J. Cramer and Donald G. Truhlar   : smd solvation model
   Lars Goerigk                                  : TD-DFT with DH, B97 family of functionals
   V. Asgeirsson, H. Jonsson                     : NEB implementation
   FAccTs GmbH                                   : IRC, NEB, NEB-TS, DLPNO-Multilevel, CI-OPT
                                                   MM, QMMM, 2- and 3-layer-ONIOM, Crystal-QMMM,
                                                   LR-CPCM, SF, NACMEs, symmetry and pop. for TD-DFT,
                                                   nearIR, NL-DFT gradient (VV10), updates on ESD,
                                                   ML-optimized integration grids
   S Lehtola, MJT Oliveira, MAL Marques          : LibXC Library
   Liviu Ungur et al                             : ANISO software


 Your calculation uses the libint2 library for the computation of 2-el integrals
 For citations please refer to: http://libint.valeyev.net

 Your ORCA version has been built with support for libXC version: 5.1.0
 For citations please refer to: https://tddft.org/programs/libxc/

 This ORCA versions uses:
   CBLAS   interface :  Fast vector & matrix operations
   LAPACKE interface :  Fast linear algebra routines
   SCALAPACK package :  Parallel linear algebra routines
   Shared memory     :  Shared parallel matrices
   BLAS/LAPACK       :  OpenBLAS 0.3.15  USE64BITINT DYNAMIC_ARCH NO_AFFINITY Zen SINGLE_THREADED
        Core in use  :  Zen
   Copyright (c) 2011-2014, The OpenBLAS Project


================================================================================

----- Orbital basis set information -----
Your calculation utilizes the basis: cc-pVTZ 
       H, B-Ne : Obtained from the ccRepo (grant-hill.group.shef.ac.uk/ccrepo) Feb. 2017
                 T. H. Dunning, Jr., J. Chem. Phys. 90, 1007 (1989)
            He : Obtained from the ccRepo (grant-hill.group.shef.ac.uk/ccrepo) Feb. 2017
                 D. E. Woon, T. H. Dunning, Jr., J. Chem. Phys. 100, 2975 (1994)
  Li-Be, Na-Mg : Obtained from the ccRepo (grant-hill.group.shef.ac.uk/ccrepo) Feb. 2017
                 B. P. Prascher, D. E. Woon, K. A. Peterson, T. H. Dunning, Jr., A. K. Wilson, Theor. Chem. Acc. 128, 69 (2011)
         Al-Ar : Obtained from the ccRepo (grant-hill.group.shef.ac.uk/ccrepo) Feb. 2017
                 D. E. Woon, T. H. Dunning, Jr., J. Chem. Phys. 98, 1358 (1993)
            Ca : Obtained from the Peterson Research Group Website (tyr0.chem.wsu.edu/~kipeters) Feb. 2017
                 J. Koput, K. A. Peterson, J. Phys. Chem. 106, 9595 (2002)
         Sc-Zn : Obtained from the ccRepo (grant-hill.group.shef.ac.uk/ccrepo) Feb. 2017
                 N. B. Balabanov, K. A. Peterson, J. Chem. Phys. 123, 064107 (2005)
                 N. B. Balabanov, K. A. Peterson, J. Chem. Phys. 125, 074110 (2006)
         Ga-Kr : Obtained from the ccRepo (grant-hill.group.shef.ac.uk/ccrepo) Feb. 2017
                 A. K. Wilson, D. E. Woon, K. A. Peterson, T. H. Dunning, Jr., J. Chem. Phys. 110, 7667 (1999)
             Y : Obtained from the ccRepo (grant-hill.group.shef.ac.uk/ccrepo) Feb. 2017
                 K. A. Peterson, D. Figgen, M. Dolg, H. Stoll, J. Chem. Phys. 126, 124101 (2007)
        Ag, Au : Obtained from the Peterson Research Group Website (tyr0.chem.wsu.edu/~kipeters) Feb. 2017
                 K. A. Peterson, C. Puzzarini, Theor. Chem. Acc. 114, 283 (2005)

================================================================================
                                        WARNINGS
                       Please study these warnings very carefully!
================================================================================


WARNING: Geometry Optimization
  ===> : Switching off AutoStart
         For restart on a previous wavefunction, please use MOREAD

WARNING: Post HF methods need fully converged wavefunctions
  ===> : Setting SCFConvForced true
         You can overwrite this default with %scf ConvForced false 


INFO   : the flag for use of the SHARK integral package has been found!

================================================================================
                                       INPUT FILE
================================================================================
NAME = NBD_S_MP2.inp
|  1> ! PAL4
|  2> ! RHF cc-pVTZ MP2 VeryTightSCF NormalOPT NoFrozenCore
|  3> ! Opt Freq
|  4> %pal nprocs 4
|  5> end
|  6> %elprop
|  7> Polar 1
|  8> end
|  9> %maxcore 38000
| 10> * xyz 0 1
| 11> C  1.187807  -0.550789  1.061768
| 12> C  1.115070  0.780526  1.051766
| 13> C  0.077558  1.165854  -0.018914
| 14> C  -1.287274  0.648939  0.469943
| 15> C  -1.214047  -0.690261  0.480358
| 16> C  0.199022  -1.062987  -0.002022
| 17> C  0.382695  0.056868  -1.057586
| 18> H  1.778951  -1.185015  1.716593
| 19> H  1.632458  1.485148  1.696938
| 20> H  0.089162  2.206204  -0.355803
| 21> H  0.325164  -2.101013  -0.322324
| 22> H  1.404092  0.108638  -1.449578
| 23> H  -0.349297  0.011313  -1.871735
| 24> S  -2.364081  -1.815553  1.193832
| 25> S  -2.552539  1.651152  1.171603
| 26> H  -2.055830  -2.872624  0.407921
| 27> H  -2.378301  2.717549  0.357599
| 28> *
| 29> 
| 30> 
| 31>                          ****END OF INPUT****
================================================================================

                       *****************************
                       * Geometry Optimization Run *
                       *****************************

Geometry optimization settings:
Update method            Update   .... BFGS
Choice of coordinates    CoordSys .... Z-matrix Internals
Initial Hessian          InHess   .... Almoef's Model

Convergence Tolerances:
Energy Change            TolE     ....  5.0000e-06 Eh
Max. Gradient            TolMAXG  ....  3.0000e-04 Eh/bohr
RMS Gradient             TolRMSG  ....  1.0000e-04 Eh/bohr
Max. Displacement        TolMAXD  ....  4.0000e-03 bohr
RMS Displacement         TolRMSD  ....  2.0000e-03 bohr
Strict Convergence                ....  False
------------------------------------------------------------------------------
                        ORCA OPTIMIZATION COORDINATE SETUP
------------------------------------------------------------------------------

The optimization will be done in new redundant internal coordinates
Making redundant internal coordinates   ...  (new redundants) done
Evaluating the initial hessian          ...  (Almloef) done
Evaluating the coordinates              ...  done
Calculating the B-matrix                .... done
Calculating the G-matrix                .... done
Diagonalizing the G-matrix              .... done
The first mode is                       ....   59
The number of degrees of freedom        ....   45

    -----------------------------------------------------------------
                    Redundant Internal Coordinates


    -----------------------------------------------------------------
         Definition                    Initial Value    Approx d2E/dq
    -----------------------------------------------------------------
      1. B(C   1,C   0)                  1.3333         0.769377   
      2. B(C   2,C   1)                  1.5399         0.360244   
      3. B(C   3,C   2)                  1.5391         0.361241   
      4. B(C   4,C   3)                  1.3412         0.747361   
      5. B(C   5,C   4)                  1.5390         0.361487   
      6. B(C   5,C   0)                  1.5400         0.360061   
      7. B(C   6,C   2)                  1.5498         0.347400   
      8. B(C   6,C   5)                  1.5498         0.347306   
      9. B(H   7,C   0)                  1.0865         0.364755   
     10. B(H   8,C   1)                  1.0865         0.364793   
     11. B(H   9,C   2)                  1.0936         0.355371   
     12. B(H  10,C   5)                  1.0936         0.355344   
     13. B(H  11,C   6)                  1.0953         0.353211   
     14. B(H  12,C   6)                  1.0958         0.352539   
     15. B(S  13,C   4)                  1.7601         0.432570   
     16. B(S  14,C   3)                  1.7600         0.432684   
     17. B(H  15,S  13)                  1.3528         0.369749   
     18. B(H  16,S  14)                  1.3528         0.369704   
     19. A(C   5,C   0,H   7)          124.8549         0.323044   
     20. A(C   1,C   0,C   5)          106.9704         0.409407   
     21. A(C   1,C   0,H   7)          128.1009         0.366930   
     22. A(C   0,C   1,H   8)          128.1063         0.366936   
     23. A(C   0,C   1,C   2)          106.9671         0.409444   
     24. A(C   2,C   1,H   8)          124.8511         0.323076   
     25. A(C   3,C   2,H   9)          115.2613         0.321840   
     26. A(C   1,C   2,C   6)           98.8749         0.356667   
     27. A(C   6,C   2,H   9)          118.1763         0.319790   
     28. A(C   3,C   2,C   6)           98.4611         0.356835   
     29. A(C   1,C   2,C   3)          107.0123         0.359045   
     30. A(C   1,C   2,H   9)          116.4289         0.321694   
     31. A(C   4,C   3,S  14)          127.2088         0.444120   
     32. A(C   2,C   3,C   4)          106.8214         0.407544   
     33. A(C   2,C   3,S  14)          124.9499         0.390240   
     34. A(C   5,C   4,S  13)          124.9013         0.390268   
     35. A(C   3,C   4,S  13)          127.2894         0.444098   
     36. A(C   3,C   4,C   5)          106.8294         0.407593   
     37. A(C   0,C   5,C   4)          107.0058         0.359055   
     38. A(C   6,C   5,H  10)          118.2086         0.319772   
     39. A(C   4,C   5,H  10)          115.3150         0.321872   
     40. A(C   4,C   5,C   6)           98.4704         0.356859   
     41. A(C   0,C   5,H  10)          116.3554         0.321663   
     42. A(C   0,C   5,C   6)           98.8619         0.356620   
     43. A(H  11,C   6,H  12)          111.0396         0.288996   
     44. A(C   5,C   6,H  12)          113.3799         0.319358   
     45. A(C   2,C   6,H  12)          113.3396         0.319372   
     46. A(C   5,C   6,H  11)          112.8568         0.319458   
     47. A(C   2,C   6,H  11)          112.9332         0.319472   
     48. A(C   2,C   6,C   5)           92.1348         0.354461   
     49. A(C   4,S  13,H  15)           96.6149         0.376410   
     50. A(C   3,S  14,H  16)           96.6843         0.376419   
     51. D(H   8,C   1,C   0,C   5)    176.9143         0.042428   
     52. D(C   2,C   1,C   0,C   5)     -0.0127         0.042428   
     53. D(C   2,C   1,C   0,H   7)   -176.9755         0.042428   
     54. D(H   8,C   1,C   0,H   7)     -0.0486         0.042428   
     55. D(H   9,C   2,C   1,C   0)   -163.6120         0.009758   
     56. D(C   3,C   2,C   1,C   0)     65.8136         0.009758   
     57. D(C   6,C   2,C   1,C   0)    -35.9288         0.009758   
     58. D(C   6,C   2,C   1,H   8)    147.0177         0.009758   
     59. D(C   3,C   2,C   1,H   8)   -111.2399         0.009758   
     60. D(H   9,C   2,C   1,H   8)     19.3345         0.009758   
     61. D(S  14,C   3,C   2,C   1)    103.4309         0.009807   
     62. D(C   4,C   3,C   2,H   9)    163.0749         0.009807   
     63. D(S  14,C   3,C   2,C   6)   -154.5272         0.009807   
     64. D(C   4,C   3,C   2,C   6)     36.3441         0.009807   
     65. D(C   4,C   3,C   2,C   1)    -65.6978         0.009807   
     66. D(S  14,C   3,C   2,H   9)    -27.7964         0.009807   
     67. D(S  13,C   4,C   3,S  14)      0.1897         0.039806   
     68. D(S  13,C   4,C   3,C   2)    168.9975         0.039806   
     69. D(C   5,C   4,C   3,S  14)   -168.8292         0.039806   
     70. D(C   5,C   4,C   3,C   2)     -0.0214         0.039806   
     71. D(C   6,C   5,C   4,S  13)    154.3409         0.009820   
     72. D(C   6,C   5,C   4,C   3)    -36.3075         0.009820   
     73. D(C   0,C   5,C   4,S  13)   -103.6292         0.009820   
     74. D(C   0,C   5,C   4,C   3)     65.7223         0.009820   
     75. D(H  10,C   5,C   0,H   7)    -19.2945         0.009748   
     76. D(H  10,C   5,C   0,C   1)    163.6179         0.009748   
     77. D(C   6,C   5,C   0,H   7)   -146.9660         0.009748   
     78. D(C   4,C   5,C   0,H   7)    111.2877         0.009748   
     79. D(C   4,C   5,C   0,C   1)    -65.7999         0.009748   
     80. D(H  10,C   5,C   4,C   3)   -163.1134         0.009820   
     81. D(C   6,C   5,C   0,C   1)     35.9464         0.009748   
     82. D(H  10,C   5,C   4,S  13)     27.5350         0.009820   
     83. D(H  12,C   6,C   5,H  10)     62.9708         0.009731   
     84. D(H  12,C   6,C   5,C   4)    -61.8111         0.009731   
     85. D(H  12,C   6,C   5,C   0)   -170.6244         0.009731   
     86. D(H  11,C   6,C   5,C   4)    170.8382         0.009731   
     87. D(H  11,C   6,C   5,C   0)     62.0249         0.009731   
     88. D(C   2,C   6,C   5,H  10)    179.5884         0.009731   
     89. D(C   2,C   6,C   5,C   4)     54.8065         0.009731   
     90. D(C   2,C   6,C   5,C   0)    -54.0068         0.009731   
     91. D(H  12,C   6,C   2,H   9)    -62.8513         0.009735   
     92. D(H  12,C   6,C   2,C   3)     61.8380         0.009735   
     93. D(H  12,C   6,C   2,C   1)    170.6588         0.009735   
     94. D(H  11,C   6,C   2,H   9)     64.5309         0.009735   
     95. D(H  11,C   6,C   2,C   3)   -170.7798         0.009735   
     96. D(H  11,C   6,C   5,H  10)    -64.3799         0.009731   
     97. D(H  11,C   6,C   2,C   1)    -61.9591         0.009735   
     98. D(C   5,C   6,C   2,H   9)   -179.5037         0.009735   
     99. D(C   5,C   6,C   2,C   3)    -54.8143         0.009735   
    100. D(C   5,C   6,C   2,C   1)     54.0064         0.009735   
    101. D(H  15,S  13,C   4,C   5)    -37.4825         0.004237   
    102. D(H  15,S  13,C   4,C   3)    155.3623         0.004237   
    103. D(H  16,S  14,C   3,C   4)   -154.5597         0.004238   
    104. D(H  16,S  14,C   3,C   2)     38.5418         0.004238   
    -----------------------------------------------------------------

Number of atoms                         .... 17
Number of degrees of freedom            .... 104

         *************************************************************
         *                GEOMETRY OPTIMIZATION CYCLE   1            *
         *************************************************************
---------------------------------
CARTESIAN COORDINATES (ANGSTROEM)
---------------------------------
  C      1.187807   -0.550789    1.061768
  C      1.115070    0.780526    1.051766
  C      0.077558    1.165854   -0.018914
  C     -1.287274    0.648939    0.469943
  C     -1.214047   -0.690261    0.480358
  C      0.199022   -1.062987   -0.002022
  C      0.382695    0.056868   -1.057586
  H      1.778951   -1.185015    1.716593
  H      1.632458    1.485148    1.696938
  H      0.089162    2.206204   -0.355803
  H      0.325164   -2.101013   -0.322324
  H      1.404092    0.108638   -1.449578
  H     -0.349297    0.011313   -1.871735
  S     -2.364081   -1.815553    1.193832
  S     -2.552539    1.651152    1.171603
  H     -2.055830   -2.872624    0.407921
  H     -2.378301    2.717549    0.357599

----------------------------
CARTESIAN COORDINATES (A.U.)
----------------------------
  NO LB      ZA    FRAG     MASS         X           Y           Z
   0 C     6.0000    0    12.011    2.244630   -1.040840    2.006451
   1 C     6.0000    0    12.011    2.107177    1.474980    1.987550
   2 C     6.0000    0    12.011    0.146563    2.203145   -0.035742
   3 C     6.0000    0    12.011   -2.432595    1.226317    0.888064
   4 C     6.0000    0    12.011   -2.294216   -1.304404    0.907745
   5 C     6.0000    0    12.011    0.376097   -2.008754   -0.003821
   6 C     6.0000    0    12.011    0.723189    0.107465   -1.998548
   7 H     1.0000    0     1.008    3.361730   -2.239354    3.243891
   8 H     1.0000    0     1.008    3.084899    2.806523    3.206748
   9 H     1.0000    0     1.008    0.168492    4.169121   -0.672370
  10 H     1.0000    0     1.008    0.614471   -3.970339   -0.609104
  11 H     1.0000    0     1.008    2.653349    0.205296   -2.739305
  12 H     1.0000    0     1.008   -0.660076    0.021378   -3.537067
  13 S    16.0000    0    32.060   -4.467466   -3.430898    2.256016
  14 S    16.0000    0    32.060   -4.823600    3.120225    2.214009
  15 H     1.0000    0     1.008   -3.884956   -5.428473    0.770859
  16 H     1.0000    0     1.008   -4.494338    5.135423    0.675764

--------------------------------
INTERNAL COORDINATES (ANGSTROEM)
--------------------------------
 C      0   0   0     0.000000000000     0.00000000     0.00000000
 C      1   0   0     1.333338044308     0.00000000     0.00000000
 C      2   1   0     1.539891061123   106.96706304     0.00000000
 C      3   2   1     1.539138938465   107.01229417    65.81358319
 C      4   3   2     1.341240957380   106.82136508   294.30222737
 C      5   4   3     1.538953909068   106.82936407     0.00000000
 C      3   2   1     1.549773551377    98.87485074   324.07122486
 H      1   2   3     1.086503395502   128.10085097   183.02449851
 H      2   1   3     1.086475685421   128.10628871   176.92693098
 H      3   2   1     1.093598177411   116.42893114   196.38802289
 H      6   5   4     1.093619290267   115.31498531   196.88659542
 H      7   3   2     1.095257820138   112.93317732   298.04093850
 H      7   3   2     1.095776501067   113.33961567   170.65876166
 S      5   4   3     1.760086769195   127.28935978   168.99747129
 S      4   3   2     1.760015105956   124.94994836   103.43093864
 H     14   5   4     1.352802231652    96.61492987   155.36232059
 H     15   4   3     1.352835523731    96.68428388    38.54177183

---------------------------
INTERNAL COORDINATES (A.U.)
---------------------------
 C      0   0   0     0.000000000000     0.00000000     0.00000000
 C      1   0   0     2.519643747680     0.00000000     0.00000000
 C      2   1   0     2.909972381597   106.96706304     0.00000000
 C      3   2   1     2.908551075752   107.01229417    65.81358319
 C      4   3   2     2.534578089047   106.82136508   294.30222737
 C      5   4   3     2.908201420867   106.82936407     0.00000000
 C      3   2   1     2.928647581698    98.87485074   324.07122486
 H      1   2   3     2.053193861074   128.10085097   183.02449851
 H      2   1   3     2.053141496611   128.10628871   176.92693098
 H      3   2   1     2.066601055863   116.42893114   196.38802289
 H      6   5   4     2.066640953378   115.31498531   196.88659542
 H      7   3   2     2.069737326096   112.93317732   298.04093850
 H      7   3   2     2.070717491003   113.33961567   170.65876166
 S      5   4   3     3.326081965717   127.28935978   168.99747129
 S      4   3   2     3.325946541822   124.94994836   103.43093864
 H     14   5   4     2.556425731180    96.61492987   155.36232059
 H     15   4   3     2.556488644092    96.68428388    38.54177183

---------------------
BASIS SET INFORMATION
---------------------
There are 3 groups of distinct atoms

 Group   1 Type C   : 18s5p2d1f contracted to 4s3p2d1f pattern {8811/311/11/1}
 Group   2 Type H   : 5s2p1d contracted to 3s2p1d pattern {311/11/1}
 Group   3 Type S   : 41s16p2d1f contracted to 5s4p2d1f pattern {13131311/7711/11/1}

Atom   0C    basis set group =>   1
Atom   1C    basis set group =>   1
Atom   2C    basis set group =>   1
Atom   3C    basis set group =>   1
Atom   4C    basis set group =>   1
Atom   5C    basis set group =>   1
Atom   6C    basis set group =>   1
Atom   7H    basis set group =>   2
Atom   8H    basis set group =>   2
Atom   9H    basis set group =>   2
Atom  10H    basis set group =>   2
Atom  11H    basis set group =>   2
Atom  12H    basis set group =>   2
Atom  13S    basis set group =>   3
Atom  14S    basis set group =>   3
Atom  15H    basis set group =>   2
Atom  16H    basis set group =>   2


           ************************************************************
           *        Program running with 4 parallel MPI-processes     *
           *              working on a common directory               *
           ************************************************************
------------------------------------------------------------------------------
                           ORCA GTO INTEGRAL CALCULATION
------------------------------------------------------------------------------
------------------------------------------------------------------------------
                   ___                                                        
                  /   \      - P O W E R E D   B Y -                         
                 /     \                                                     
                 |  |  |   _    _      __       _____    __    __             
                 |  |  |  | |  | |    /  \     |  _  \  |  |  /  |          
                  \  \/   | |  | |   /    \    | | | |  |  | /  /          
                 / \  \   | |__| |  /  /\  \   | |_| |  |  |/  /          
                |  |  |   |  __  | /  /__\  \  |    /   |      \           
                |  |  |   | |  | | |   __   |  |    \   |  |\   \          
                \     /   | |  | | |  |  |  |  | |\  \  |  | \   \       
                 \___/    |_|  |_| |__|  |__|  |_| \__\ |__|  \__/        
                                                                              
                      - O R C A' S   B I G   F R I E N D -                    
                                      &                                       
                       - I N T E G R A L  F E E D E R -                       
                                                                              
 v1 FN, 2020, v2 2021                                                         
------------------------------------------------------------------------------


Reading SHARK input file NBD_S_MP2.SHARKINP.tmp ... ok
----------------------
SHARK INTEGRAL PACKAGE
----------------------

Number of atoms                             ...     17
Number of basis functions                   ...    390
Number of shells                            ...    142
Maximum angular momentum                    ...      3
Integral batch strategy                     ... SHARK/LIBINT Hybrid
RI-J (if used) integral strategy            ... SPLIT-RIJ (Revised 2003 algorithm where possible)
Printlevel                                  ...      1
Contraction scheme used                     ... SEGMENTED contraction
Coulomb Range Separation                    ... NOT USED
Exchange Range Separation                   ... NOT USED
Finite Nucleus Model                        ... NOT USED
Auxiliary Coulomb fitting basis             ... NOT available
Auxiliary J/K fitting basis                 ... NOT available
Auxiliary Correlation fitting basis         ... NOT available
Auxiliary 'external' fitting basis          ... NOT available
Integral threshold                          ...     1.000000e-12
Primitive cut-off                           ...     1.000000e-14
Primitive pair pre-selection threshold      ...     1.000000e-14

Calculating pre-screening integrals         ... done (  1.1 sec) Dimension = 142
Organizing shell pair data                  ... done (  0.1 sec)
Shell pair information
Total number of shell pairs                 ...     10153
Shell pairs after pre-screening             ...      9898
Total number of primitive shell pairs       ...     68150
Primitive shell pairs kept                  ...     41119
          la=0 lb=0:   1921 shell pairs
          la=1 lb=0:   2724 shell pairs
          la=1 lb=1:    999 shell pairs
          la=2 lb=0:   1562 shell pairs
          la=2 lb=1:   1120 shell pairs
          la=2 lb=2:    334 shell pairs
          la=3 lb=0:    556 shell pairs
          la=3 lb=1:    403 shell pairs
          la=3 lb=2:    234 shell pairs
          la=3 lb=3:     45 shell pairs

Calculating one electron integrals          ... done (  0.0 sec)
Calculating Nuclear repulsion               ... done (  0.0 sec) ENN=    589.793970064028 Eh

SHARK setup successfully completed in   1.4 seconds

Maximum memory used throughout the entire GTOINT-calculation: 46.7 MB


           ************************************************************
           *        Program running with 4 parallel MPI-processes     *
           *              working on a common directory               *
           ************************************************************
-------------------------------------------------------------------------------
                                 ORCA SCF
-------------------------------------------------------------------------------

------------
SCF SETTINGS
------------
Hamiltonian:
 Ab initio Hamiltonian  Method          .... Hartree-Fock(GTOs)


General Settings:
 Integral files         IntName         .... NBD_S_MP2
 Hartree-Fock type      HFTyp           .... RHF
 Total Charge           Charge          ....    0
 Multiplicity           Mult            ....    1
 Number of Electrons    NEL             ....   82
 Basis Dimension        Dim             ....  390
 Nuclear Repulsion      ENuc            ....    589.7939700640 Eh

Convergence Acceleration:
 DIIS                   CNVDIIS         .... on
   Start iteration      DIISMaxIt       ....    12
   Startup error        DIISStart       ....  0.200000
   # of expansion vecs  DIISMaxEq       ....     5
   Bias factor          DIISBfac        ....   1.050
   Max. coefficient     DIISMaxC        ....  10.000
 Trust-Rad. Augm. Hess. CNVTRAH         .... auto
   Auto Start mean grad. ratio tolernc. ....  1.125000
   Auto Start start iteration           ....    20
   Auto Start num. interpolation iter.  ....    10
   Max. Number of Micro iterations      ....    16
   Max. Number of Macro iterations      .... Maxiter - #DIIS iter
   Number of Davidson start vectors     ....     2
   Converg. threshold I  (grad. norm)   ....   2.000e-06
   Converg. threshold II (energy diff.) ....   1.000e-09
   Grad. Scal. Fac. for Micro threshold ....   0.100
   Minimum threshold for Micro iter.    ....   0.010
   NR start threshold (gradient norm)   ....   0.001
   Initial trust radius                 ....   0.400
   Minimum AH scaling param. (alpha)    ....   1.000
   Maximum AH scaling param. (alpha)    .... 1000.000
   Orbital update algorithm             .... Taylor
   White noise on init. David. guess    .... on
   Maximum white noise                  ....   0.010
   Quad. conv. algorithm                .... NR
 SOSCF                  CNVSOSCF        .... on
   Start iteration      SOSCFMaxIt      ....   150
   Startup grad/error   SOSCFStart      ....  0.003300
 Level Shifting         CNVShift        .... on
   Level shift para.    LevelShift      ....    0.2500
   Turn off err/grad.   ShiftErr        ....    0.0010
 Zerner damping         CNVZerner       .... off
 Static damping         CNVDamp         .... on
   Fraction old density DampFac         ....    0.7000
   Max. Damping (<1)    DampMax         ....    0.9800
   Min. Damping (>=0)   DampMin         ....    0.0000
   Turn off err/grad.   DampErr         ....    0.1000
 Fernandez-Rico         CNVRico         .... off

SCF Procedure:
 Maximum # iterations   MaxIter         ....   125
 SCF integral mode      SCFMode         .... Direct
   Integral package                     .... SHARK and LIBINT hybrid scheme
 Reset frequency        DirectResetFreq ....    20
 Integral Threshold     Thresh          ....  1.000e-12 Eh
 Primitive CutOff       TCut            ....  1.000e-14 Eh

Convergence Tolerance:
 Convergence Check Mode ConvCheckMode   .... Total+1el-Energy
 Convergence forced     ConvForced      .... 1
 Energy Change          TolE            ....  1.000e-09 Eh
 1-El. energy change                    ....  1.000e-06 Eh
 Orbital Gradient       TolG            ....  2.000e-06
 Orbital Rotation angle TolX            ....  2.000e-06
 DIIS Error             TolErr          ....  1.000e-08


Diagonalization of the overlap matrix:
Smallest eigenvalue                        ... 6.745e-05
Time for diagonalization                   ...    0.280 sec
Threshold for overlap eigenvalues          ... 1.000e-08
Number of eigenvalues below threshold      ... 0
Time for construction of square roots      ...    0.022 sec
Total time needed                          ...    0.303 sec

Time for model grid setup =    0.193 sec

------------------------------
INITIAL GUESS: MODEL POTENTIAL
------------------------------
Loading Hartree-Fock densities                     ... done
Calculating cut-offs                               ... done
Initializing the effective Hamiltonian             ... done
Setting up the integral package (SHARK)            ... done
Starting the Coulomb interaction                   ... done (   0.3 sec)
Reading the grid                                   ... done
Mapping shells                                     ... done
Starting the XC term evaluation                    ... done (   0.2 sec)
Transforming the Hamiltonian                       ... done (   0.0 sec)
Diagonalizing the Hamiltonian                      ... done (   0.0 sec)
Back transforming the eigenvectors                 ... done (   0.0 sec)
Now organizing SCF variables                       ... done
                      ------------------
                      INITIAL GUESS DONE (   0.7 sec)
                      ------------------
--------------
SCF ITERATIONS
--------------
ITER       Energy         Delta-E        Max-DP      RMS-DP      [F,P]     Damp
               ***  Starting incremental Fock matrix formation  ***
  0  -1064.4583709708   0.000000000000 0.05446750  0.00064944  0.2024139 0.7000
  1  -1064.5898873990  -0.131516428289 0.03912117  0.00051914  0.1295652 0.7000
                               ***Turning on DIIS***
  2  -1064.6677522567  -0.077864857639 0.09184459  0.00115703  0.0934246 0.0000
  3  -1063.9643631290   0.703389127645 0.01703562  0.00037159  0.0345177 0.0000
  4  -1064.8952226078  -0.930859478711 0.01084684  0.00017442  0.0069003 0.0000
                      *** Initiating the SOSCF procedure ***
                           *** Shutting down DIIS ***
                      *** Re-Reading the Fockian *** 
                      *** Removing any level shift *** 
ITER      Energy       Delta-E        Grad      Rot      Max-DP    RMS-DP
  5  -1064.83537761   0.0598450019  0.003176  0.003176  0.006808  0.000104
               *** Restarting incremental Fock matrix formation ***
  6  -1064.83594956  -0.0005719518  0.001563  0.003151  0.003724  0.000060
  7  -1064.83600882  -0.0000592640  0.000584  0.002349  0.002512  0.000040
  8  -1064.83602212  -0.0000132959  0.000165  0.000174  0.000455  0.000009
  9  -1064.83602325  -0.0000011320  0.000040  0.000081  0.000111  0.000002
 10  -1064.83602336  -0.0000001125  0.000011  0.000027  0.000026  0.000001
 11  -1064.83602338  -0.0000000136  0.000006  0.000020  0.000012  0.000000
 12  -1064.83602338  -0.0000000019  0.000001  0.000003  0.000003  0.000000
                  ***Gradient check signals convergence***
              ***Rediagonalizing the Fockian in SOSCF/NRSCF***

               *****************************************************
               *                     SUCCESS                       *
               *           SCF CONVERGED AFTER  13 CYCLES          *
               *****************************************************


----------------
TOTAL SCF ENERGY
----------------

Total Energy       :        -1064.83602338 Eh          -28975.66129 eV

Components:
Nuclear Repulsion  :          589.79397006 Eh           16049.10985 eV
Electronic Energy  :        -1654.62999344 Eh          -45024.77114 eV
One Electron Energy:        -2636.66254116 Eh          -71747.23530 eV
Two Electron Energy:          982.03254772 Eh           26722.46417 eV

Virial components:
Potential Energy   :        -2129.18333853 Eh          -57938.02415 eV
Kinetic Energy     :         1064.34731515 Eh           28962.36286 eV
Virial Ratio       :            2.00045916


---------------
SCF CONVERGENCE
---------------

  Last Energy change         ...   -7.6170e-11  Tolerance :   1.0000e-09
  Last MAX-Density change    ...    1.4907e-06  Tolerance :   1.0000e-08
  Last RMS-Density change    ...    2.7735e-08  Tolerance :   1.0000e-09
  Last Orbital Gradient      ...    3.3169e-07  Tolerance :   2.0000e-06
  Last Orbital Rotation      ...    6.1301e-07  Tolerance :   2.0000e-06

             **** THE GBW FILE WAS UPDATED (NBD_S_MP2.gbw) ****
             **** DENSITY NBD_S_MP2.scfp WAS UPDATED ****
             **** ENERGY FILE WAS UPDATED (NBD_S_MP2.en.tmp) ****
             **** THE GBW FILE WAS UPDATED (NBD_S_MP2.gbw) ****
             **** DENSITY NBD_S_MP2.scfp WAS UPDATED ****
----------------
ORBITAL ENERGIES
----------------

  NO   OCC          E(Eh)            E(eV) 
   0   2.0000     -91.965952     -2502.5208 
   1   2.0000     -91.965736     -2502.5149 
   2   2.0000     -11.264309      -306.5174 
   3   2.0000     -11.262606      -306.4711 
   4   2.0000     -11.255026      -306.2648 
   5   2.0000     -11.254896      -306.2613 
   6   2.0000     -11.237909      -305.7990 
   7   2.0000     -11.233830      -305.6881 
   8   2.0000     -11.232087      -305.6406 
   9   2.0000      -8.967282      -244.0122 
  10   2.0000      -8.967070      -244.0064 
  11   2.0000      -6.648582      -180.9171 
  12   2.0000      -6.648373      -180.9114 
  13   2.0000      -6.647635      -180.8913 
  14   2.0000      -6.647424      -180.8856 
  15   2.0000      -6.646633      -180.8641 
  16   2.0000      -6.646423      -180.8584 
  17   2.0000      -1.208186       -32.8764 
  18   2.0000      -1.070427       -29.1278 
  19   2.0000      -1.020678       -27.7741 
  20   2.0000      -0.980985       -26.6939 
  21   2.0000      -0.943695       -25.6792 
  22   2.0000      -0.909634       -24.7524 
  23   2.0000      -0.789899       -21.4942 
  24   2.0000      -0.744493       -20.2587 
  25   2.0000      -0.698644       -19.0111 
  26   2.0000      -0.660553       -17.9746 
  27   2.0000      -0.657446       -17.8900 
  28   2.0000      -0.575872       -15.6703 
  29   2.0000      -0.555377       -15.1126 
  30   2.0000      -0.546425       -14.8690 
  31   2.0000      -0.541154       -14.7255 
  32   2.0000      -0.519776       -14.1438 
  33   2.0000      -0.518404       -14.1065 
  34   2.0000      -0.485513       -13.2115 
  35   2.0000      -0.479100       -13.0370 
  36   2.0000      -0.443114       -12.0577 
  37   2.0000      -0.422362       -11.4931 
  38   2.0000      -0.380794       -10.3619 
  39   2.0000      -0.361802        -9.8451 
  40   2.0000      -0.292621        -7.9626 
  41   0.0000       0.115820         3.1516 
  42   0.0000       0.118753         3.2314 
  43   0.0000       0.146883         3.9969 
  44   0.0000       0.154715         4.2100 
  45   0.0000       0.175003         4.7621 
  46   0.0000       0.175034         4.7629 
  47   0.0000       0.181441         4.9373 
  48   0.0000       0.189768         5.1638 
  49   0.0000       0.203987         5.5508 
  50   0.0000       0.209105         5.6900 
  51   0.0000       0.209905         5.7118 
  52   0.0000       0.212892         5.7931 
  53   0.0000       0.280896         7.6436 
  54   0.0000       0.287038         7.8107 
  55   0.0000       0.309907         8.4330 
  56   0.0000       0.326662         8.8889 
  57   0.0000       0.343784         9.3548 
  58   0.0000       0.345865         9.4115 
  59   0.0000       0.355654         9.6778 
  60   0.0000       0.374613        10.1937 
  61   0.0000       0.382291        10.4027 
  62   0.0000       0.392692        10.6857 
  63   0.0000       0.401501        10.9254 
  64   0.0000       0.412242        11.2177 
  65   0.0000       0.419437        11.4135 
  66   0.0000       0.427264        11.6265 
  67   0.0000       0.431958        11.7542 
  68   0.0000       0.438958        11.9447 
  69   0.0000       0.457984        12.4624 
  70   0.0000       0.467747        12.7280 
  71   0.0000       0.473838        12.8938 
  72   0.0000       0.487257        13.2589 
  73   0.0000       0.511706        13.9242 
  74   0.0000       0.524113        14.2618 
  75   0.0000       0.544129        14.8065 
  76   0.0000       0.549179        14.9439 
  77   0.0000       0.560108        15.2413 
  78   0.0000       0.563122        15.3233 
  79   0.0000       0.564775        15.3683 
  80   0.0000       0.582682        15.8556 
  81   0.0000       0.597602        16.2616 
  82   0.0000       0.602129        16.3848 
  83   0.0000       0.609550        16.5867 
  84   0.0000       0.613024        16.6812 
  85   0.0000       0.636716        17.3259 
  86   0.0000       0.642226        17.4759 
  87   0.0000       0.650059        17.6890 
  88   0.0000       0.655024        17.8241 
  89   0.0000       0.655248        17.8302 
  90   0.0000       0.666740        18.1429 
  91   0.0000       0.667168        18.1546 
  92   0.0000       0.694004        18.8848 
  93   0.0000       0.713989        19.4286 
  94   0.0000       0.733673        19.9643 
  95   0.0000       0.739748        20.1296 
  96   0.0000       0.755050        20.5460 
  97   0.0000       0.759199        20.6588 
  98   0.0000       0.767962        20.8973 
  99   0.0000       0.779791        21.2192 
 100   0.0000       0.811212        22.0742 
 101   0.0000       0.858903        23.3720 
 102   0.0000       0.865681        23.5564 
 103   0.0000       0.884523        24.0691 
 104   0.0000       0.896723        24.4011 
 105   0.0000       0.913436        24.8559 
 106   0.0000       0.915160        24.9028 
 107   0.0000       0.927875        25.2488 
 108   0.0000       0.946138        25.7457 
 109   0.0000       0.963860        26.2280 
 110   0.0000       0.970905        26.4197 
 111   0.0000       0.994856        27.0714 
 112   0.0000       1.007028        27.4026 
 113   0.0000       1.012943        27.5636 
 114   0.0000       1.043342        28.3908 
 115   0.0000       1.056425        28.7468 
 116   0.0000       1.066732        29.0272 
 117   0.0000       1.088492        29.6194 
 118   0.0000       1.094629        29.7864 
 119   0.0000       1.109778        30.1986 
 120   0.0000       1.133534        30.8450 
 121   0.0000       1.137636        30.9566 
 122   0.0000       1.146583        31.2001 
 123   0.0000       1.156880        31.4803 
 124   0.0000       1.174831        31.9688 
 125   0.0000       1.181243        32.1433 
 126   0.0000       1.193007        32.4634 
 127   0.0000       1.221448        33.2373 
 128   0.0000       1.231525        33.5115 
 129   0.0000       1.233503        33.5653 
 130   0.0000       1.248497        33.9733 
 131   0.0000       1.265112        34.4254 
 132   0.0000       1.306694        35.5570 
 133   0.0000       1.315891        35.8072 
 134   0.0000       1.332117        36.2487 
 135   0.0000       1.341439        36.5024 
 136   0.0000       1.356448        36.9108 
 137   0.0000       1.369460        37.2649 
 138   0.0000       1.381566        37.5943 
 139   0.0000       1.403978        38.2042 
 140   0.0000       1.409558        38.3560 
 141   0.0000       1.433820        39.0162 
 142   0.0000       1.436577        39.0912 
 143   0.0000       1.447164        39.3793 
 144   0.0000       1.448387        39.4126 
 145   0.0000       1.457220        39.6530 
 146   0.0000       1.474460        40.1221 
 147   0.0000       1.498690        40.7814 
 148   0.0000       1.504432        40.9377 
 149   0.0000       1.508916        41.0597 
 150   0.0000       1.530332        41.6425 
 151   0.0000       1.550449        42.1899 
 152   0.0000       1.557447        42.3803 
 153   0.0000       1.589156        43.2431 
 154   0.0000       1.592260        43.3276 
 155   0.0000       1.604367        43.6571 
 156   0.0000       1.633365        44.4461 
 157   0.0000       1.636188        44.5229 
 158   0.0000       1.670916        45.4679 
 159   0.0000       1.678969        45.6871 
 160   0.0000       1.694308        46.1045 
 161   0.0000       1.697168        46.1823 
 162   0.0000       1.725766        46.9605 
 163   0.0000       1.729239        47.0550 
 164   0.0000       1.768255        48.1167 
 165   0.0000       1.772239        48.2251 
 166   0.0000       1.818492        49.4837 
 167   0.0000       1.829760        49.7903 
 168   0.0000       1.860688        50.6319 
 169   0.0000       1.865725        50.7690 
 170   0.0000       1.880163        51.1618 
 171   0.0000       1.882426        51.2234 
 172   0.0000       1.916177        52.1418 
 173   0.0000       1.939322        52.7716 
 174   0.0000       1.947187        52.9857 
 175   0.0000       1.976949        53.7955 
 176   0.0000       1.989757        54.1440 
 177   0.0000       2.017752        54.9058 
 178   0.0000       2.021978        55.0208 
 179   0.0000       2.057267        55.9811 
 180   0.0000       2.073718        56.4287 
 181   0.0000       2.118108        57.6366 
 182   0.0000       2.126035        57.8524 
 183   0.0000       2.149018        58.4777 
 184   0.0000       2.149650        58.4949 
 185   0.0000       2.167157        58.9713 
 186   0.0000       2.170384        59.0592 
 187   0.0000       2.175104        59.1876 
 188   0.0000       2.197271        59.7908 
 189   0.0000       2.228800        60.6487 
 190   0.0000       2.257656        61.4339 
 191   0.0000       2.301332        62.6224 
 192   0.0000       2.307028        62.7774 
 193   0.0000       2.324233        63.2456 
 194   0.0000       2.342646        63.7467 
 195   0.0000       2.364912        64.3525 
 196   0.0000       2.423036        65.9342 
 197   0.0000       2.470176        67.2169 
 198   0.0000       2.500764        68.0492 
 199   0.0000       2.546240        69.2867 
 200   0.0000       2.555962        69.5513 
 201   0.0000       2.576708        70.1158 
 202   0.0000       2.613080        71.1055 
 203   0.0000       2.635275        71.7095 
 204   0.0000       2.643481        71.9328 
 205   0.0000       2.686404        73.1008 
 206   0.0000       2.703387        73.5629 
 207   0.0000       2.720949        74.0408 
 208   0.0000       2.739767        74.5529 
 209   0.0000       2.747006        74.7498 
 210   0.0000       2.763030        75.1859 
 211   0.0000       2.765186        75.2445 
 212   0.0000       2.784367        75.7665 
 213   0.0000       2.809994        76.4638 
 214   0.0000       2.824128        76.8484 
 215   0.0000       2.843671        77.3802 
 216   0.0000       2.862390        77.8896 
 217   0.0000       2.865327        77.9695 
 218   0.0000       2.883502        78.4641 
 219   0.0000       2.886041        78.5332 
 220   0.0000       2.896828        78.8267 
 221   0.0000       2.903388        79.0052 
 222   0.0000       2.910367        79.1951 
 223   0.0000       2.936902        79.9172 
 224   0.0000       2.967004        80.7363 
 225   0.0000       2.971056        80.8466 
 226   0.0000       2.984790        81.2203 
 227   0.0000       2.992084        81.4187 
 228   0.0000       3.055356        83.1405 
 229   0.0000       3.064550        83.3907 
 230   0.0000       3.079397        83.7947 
 231   0.0000       3.091730        84.1302 
 232   0.0000       3.093784        84.1861 
 233   0.0000       3.133863        85.2767 
 234   0.0000       3.147624        85.6512 
 235   0.0000       3.163394        86.0803 
 236   0.0000       3.163589        86.0856 
 237   0.0000       3.200376        87.0866 
 238   0.0000       3.215518        87.4987 
 239   0.0000       3.246736        88.3482 
 240   0.0000       3.264086        88.8203 
 241   0.0000       3.278389        89.2095 
 242   0.0000       3.287428        89.4555 
 243   0.0000       3.324912        90.4755 
 244   0.0000       3.327173        90.5370 
 245   0.0000       3.335100        90.7527 
 246   0.0000       3.351895        91.2097 
 247   0.0000       3.370090        91.7048 
 248   0.0000       3.376110        91.8686 
 249   0.0000       3.391798        92.2955 
 250   0.0000       3.402198        92.5785 
 251   0.0000       3.403366        92.6103 
 252   0.0000       3.437581        93.5413 
 253   0.0000       3.445982        93.7699 
 254   0.0000       3.488234        94.9197 
 255   0.0000       3.502278        95.3018 
 256   0.0000       3.511326        95.5480 
 257   0.0000       3.514463        95.6334 
 258   0.0000       3.525514        95.9341 
 259   0.0000       3.540203        96.3338 
 260   0.0000       3.549434        96.5850 
 261   0.0000       3.566700        97.0548 
 262   0.0000       3.578618        97.3791 
 263   0.0000       3.579679        97.4080 
 264   0.0000       3.607696        98.1704 
 265   0.0000       3.608978        98.2053 
 266   0.0000       3.611088        98.2627 
 267   0.0000       3.622918        98.5846 
 268   0.0000       3.658012        99.5396 
 269   0.0000       3.660536        99.6083 
 270   0.0000       3.683806       100.2415 
 271   0.0000       3.683933       100.2449 
 272   0.0000       3.697610       100.6171 
 273   0.0000       3.703509       100.7776 
 274   0.0000       3.710269       100.9616 
 275   0.0000       3.746349       101.9433 
 276   0.0000       3.770386       102.5974 
 277   0.0000       3.772195       102.6466 
 278   0.0000       3.775685       102.7416 
 279   0.0000       3.821374       103.9849 
 280   0.0000       3.839704       104.4837 
 281   0.0000       3.853644       104.8630 
 282   0.0000       3.861158       105.0674 
 283   0.0000       3.886627       105.7605 
 284   0.0000       3.892169       105.9113 
 285   0.0000       3.921568       106.7113 
 286   0.0000       3.950772       107.5060 
 287   0.0000       3.962341       107.8208 
 288   0.0000       3.977871       108.2434 
 289   0.0000       3.985385       108.4478 
 290   0.0000       3.987325       108.5006 
 291   0.0000       4.012236       109.1785 
 292   0.0000       4.018806       109.3573 
 293   0.0000       4.026405       109.5641 
 294   0.0000       4.043729       110.0355 
 295   0.0000       4.047640       110.1419 
 296   0.0000       4.084401       111.1422 
 297   0.0000       4.096831       111.4804 
 298   0.0000       4.109150       111.8156 
 299   0.0000       4.136938       112.5718 
 300   0.0000       4.141742       112.7025 
 301   0.0000       4.190762       114.0364 
 302   0.0000       4.197229       114.2124 
 303   0.0000       4.205070       114.4258 
 304   0.0000       4.224928       114.9661 
 305   0.0000       4.229939       115.1025 
 306   0.0000       4.232546       115.1734 
 307   0.0000       4.235645       115.2578 
 308   0.0000       4.271846       116.2428 
 309   0.0000       4.278658       116.4282 
 310   0.0000       4.300312       117.0174 
 311   0.0000       4.309735       117.2739 
 312   0.0000       4.336524       118.0028 
 313   0.0000       4.352517       118.4380 
 314   0.0000       4.356217       118.5387 
 315   0.0000       4.357751       118.5804 
 316   0.0000       4.369489       118.8998 
 317   0.0000       4.400053       119.7315 
 318   0.0000       4.401750       119.7777 
 319   0.0000       4.414515       120.1251 
 320   0.0000       4.429491       120.5326 
 321   0.0000       4.435872       120.7062 
 322   0.0000       4.457066       121.2829 
 323   0.0000       4.459576       121.3512 
 324   0.0000       4.470514       121.6489 
 325   0.0000       4.483083       121.9909 
 326   0.0000       4.525922       123.1566 
 327   0.0000       4.534440       123.3884 
 328   0.0000       4.566432       124.2589 
 329   0.0000       4.568293       124.3096 
 330   0.0000       4.582648       124.7002 
 331   0.0000       4.608812       125.4121 
 332   0.0000       4.623972       125.8247 
 333   0.0000       4.635578       126.1405 
 334   0.0000       4.650265       126.5401 
 335   0.0000       4.685425       127.4969 
 336   0.0000       4.722419       128.5036 
 337   0.0000       4.765693       129.6811 
 338   0.0000       4.776964       129.9878 
 339   0.0000       4.789995       130.3424 
 340   0.0000       4.828971       131.4030 
 341   0.0000       4.842156       131.7618 
 342   0.0000       4.860787       132.2687 
 343   0.0000       4.896012       133.2273 
 344   0.0000       4.915796       133.7656 
 345   0.0000       4.952356       134.7605 
 346   0.0000       4.957853       134.9100 
 347   0.0000       4.968161       135.1905 
 348   0.0000       4.982305       135.5754 
 349   0.0000       4.996169       135.9527 
 350   0.0000       5.074242       138.0771 
 351   0.0000       5.080091       138.2363 
 352   0.0000       5.105402       138.9251 
 353   0.0000       5.149424       140.1229 
 354   0.0000       5.156689       140.3206 
 355   0.0000       5.221151       142.0748 
 356   0.0000       5.225330       142.1885 
 357   0.0000       5.289396       143.9318 
 358   0.0000       5.294178       144.0619 
 359   0.0000       5.346688       145.4908 
 360   0.0000       5.350884       145.6050 
 361   0.0000       5.401168       146.9733 
 362   0.0000       5.476713       149.0289 
 363   0.0000       5.486564       149.2970 
 364   0.0000       5.516082       150.1002 
 365   0.0000       5.551332       151.0594 
 366   0.0000       5.572612       151.6385 
 367   0.0000       5.580653       151.8573 
 368   0.0000       5.615834       152.8146 
 369   0.0000       5.676018       154.4523 
 370   0.0000       5.740327       156.2022 
 371   0.0000       5.771434       157.0487 
 372   0.0000       5.852528       159.2554 
 373   0.0000       5.898657       160.5106 
 374   0.0000       5.908538       160.7795 
 375   0.0000       6.023331       163.9032 
 376   0.0000       6.145260       167.2210 
 377   0.0000       6.175792       168.0518 
 378   0.0000       6.233209       169.6142 
 379   0.0000       6.384370       173.7276 
 380   0.0000       6.409571       174.4133 
 381   0.0000       6.499967       176.8731 
 382   0.0000       6.671739       181.5472 
 383   0.0000       8.743676       237.9275 
 384   0.0000      11.079530       301.4894 
 385   0.0000      12.559048       341.7491 
 386   0.0000      13.079144       355.9016 
 387   0.0000      13.278241       361.3193 
 388   0.0000      13.606799       370.2598 
 389   0.0000      14.509056       394.8115 

                    ********************************
                    * MULLIKEN POPULATION ANALYSIS *
                    ********************************

-----------------------
MULLIKEN ATOMIC CHARGES
-----------------------
   0 C :   -0.223283
   1 C :   -0.223077
   2 C :    0.003896
   3 C :   -0.047514
   4 C :   -0.045728
   5 C :    0.003237
   6 C :   -0.203412
   7 H :    0.171348
   8 H :    0.171374
   9 H :    0.122483
  10 H :    0.122546
  11 H :    0.107376
  12 H :    0.107636
  13 S :   -0.123733
  14 S :   -0.124741
  15 H :    0.090778
  16 H :    0.090815
Sum of atomic charges:   -0.0000000

--------------------------------
MULLIKEN REDUCED ORBITAL CHARGES
--------------------------------
  0 C s       :     3.297737  s :     3.297737
      pz      :     0.956526  p :     2.814045
      px      :     0.958492
      py      :     0.899027
      dz2     :     0.011645  d :     0.101941
      dxz     :     0.010903
      dyz     :     0.033924
      dx2y2   :     0.013604
      dxy     :     0.031865
      f0      :     0.001164  f :     0.009560
      f+1     :     0.001175
      f-1     :     0.000828
      f+2     :     0.001943
      f-2     :     0.001234
      f+3     :     0.002126
      f-3     :     0.001090
  1 C s       :     3.297871  s :     3.297871
      pz      :     0.955629  p :     2.813646
      px      :     0.951657
      py      :     0.906360
      dz2     :     0.011773  d :     0.101999
      dxz     :     0.010915
      dyz     :     0.033777
      dx2y2   :     0.015694
      dxy     :     0.029840
      f0      :     0.001169  f :     0.009561
      f+1     :     0.001195
      f-1     :     0.000804
      f+2     :     0.002081
      f-2     :     0.001088
      f+3     :     0.002213
      f-3     :     0.001011
  2 C s       :     3.123373  s :     3.123373
      pz      :     0.903397  p :     2.729529
      px      :     0.836687
      py      :     0.989444
      dz2     :     0.022227  d :     0.133974
      dxz     :     0.029328
      dyz     :     0.023682
      dx2y2   :     0.045113
      dxy     :     0.013624
      f0      :     0.000990  f :     0.009228
      f+1     :     0.001242
      f-1     :     0.001149
      f+2     :     0.002020
      f-2     :     0.001342
      f+3     :     0.001102
      f-3     :     0.001384
  3 C s       :     3.249552  s :     3.249552
      pz      :     0.963387  p :     2.649869
      px      :     0.852006
      py      :     0.834476
      dz2     :     0.012007  d :     0.137200
      dxz     :     0.016305
      dyz     :     0.038490
      dx2y2   :     0.032603
      dxy     :     0.037793
      f0      :     0.001453  f :     0.010894
      f+1     :     0.001104
      f-1     :     0.000777
      f+2     :     0.002004
      f-2     :     0.001081
      f+3     :     0.002543
      f-3     :     0.001933
  4 C s       :     3.249487  s :     3.249487
      pz      :     0.959998  p :     2.648031
      px      :     0.863066
      py      :     0.824967
      dz2     :     0.012294  d :     0.137306
      dxz     :     0.016499
      dyz     :     0.038397
      dx2y2   :     0.031890
      dxy     :     0.038226
      f0      :     0.001452  f :     0.010904
      f+1     :     0.001062
      f-1     :     0.000839
      f+2     :     0.002081
      f-2     :     0.001006
      f+3     :     0.002582
      f-3     :     0.001882
  5 C s       :     3.123506  s :     3.123506
      pz      :     0.903345  p :     2.730110
      px      :     0.835346
      py      :     0.991420
      dz2     :     0.022404  d :     0.133920
      dxz     :     0.029284
      dyz     :     0.023301
      dx2y2   :     0.044997
      dxy     :     0.013933
      f0      :     0.000986  f :     0.009227
      f+1     :     0.001186
      f-1     :     0.001227
      f+2     :     0.002084
      f-2     :     0.001242
      f+3     :     0.001157
      f-3     :     0.001344
  6 C s       :     3.252655  s :     3.252655
      pz      :     0.935546  p :     2.821855
      px      :     1.032856
      py      :     0.853453
      dz2     :     0.015705  d :     0.121546
      dxz     :     0.035431
      dyz     :     0.025900
      dx2y2   :     0.032347
      dxy     :     0.012163
      f0      :     0.000528  f :     0.007357
      f+1     :     0.000811
      f-1     :     0.001545
      f+2     :     0.002229
      f-2     :     0.001234
      f+3     :     0.000556
      f-3     :     0.000454
  7 H s       :     0.803049  s :     0.803049
      pz      :     0.008923  p :     0.023627
      px      :     0.010273
      py      :     0.004432
      dz2     :     0.000376  d :     0.001976
      dxz     :     0.000459
      dyz     :     0.000346
      dx2y2   :     0.000421
      dxy     :     0.000374
  8 H s       :     0.803026  s :     0.803026
      pz      :     0.008952  p :     0.023623
      px      :     0.010242
      py      :     0.004430
      dz2     :     0.000369  d :     0.001976
      dxz     :     0.000419
      dyz     :     0.000384
      dx2y2   :     0.000408
      dxy     :     0.000396
  9 H s       :     0.840266  s :     0.840266
      pz      :     0.010609  p :     0.034597
      px      :     0.009735
      py      :     0.014253
      dz2     :     0.000246  d :     0.002653
      dxz     :     0.000163
      dyz     :     0.000881
      dx2y2   :     0.000534
      dxy     :     0.000829
 10 H s       :     0.840188  s :     0.840188
      pz      :     0.010508  p :     0.034612
      px      :     0.010023
      py      :     0.014080
      dz2     :     0.000237  d :     0.002654
      dxz     :     0.000152
      dyz     :     0.000888
      dx2y2   :     0.000561
      dxy     :     0.000816
 11 H s       :     0.859577  s :     0.859577
      pz      :     0.010143  p :     0.030579
      px      :     0.011880
      py      :     0.008556
      dz2     :     0.000313  d :     0.002468
      dxz     :     0.000773
      dyz     :     0.000248
      dx2y2   :     0.000451
      dxy     :     0.000682
 12 H s       :     0.860180  s :     0.860180
      pz      :     0.012834  p :     0.029729
      px      :     0.008646
      py      :     0.008250
      dz2     :     0.000649  d :     0.002455
      dxz     :     0.000617
      dyz     :     0.000655
      dx2y2   :     0.000275
      dxy     :     0.000259
 13 S s       :     5.811300  s :     5.811300
      pz      :     3.561913  p :    10.169657
      px      :     3.582948
      py      :     3.024797
      dz2     :     0.010696  d :     0.130689
      dxz     :     0.016044
      dyz     :     0.051105
      dx2y2   :     0.020227
      dxy     :     0.032616
      f0      :     0.001280  f :     0.012087
      f+1     :     0.000877
      f-1     :     0.001350
      f+2     :     0.002187
      f-2     :     0.003065
      f+3     :     0.001765
      f-3     :     0.001562
 14 S s       :     5.811475  s :     5.811475
      pz      :     3.548370  p :    10.170386
      px      :     3.523389
      py      :     3.098627
      dz2     :     0.010705  d :     0.130782
      dxz     :     0.017556
      dyz     :     0.050761
      dx2y2   :     0.024135
      dxy     :     0.027624
      f0      :     0.001205  f :     0.012098
      f+1     :     0.000985
      f-1     :     0.001395
      f+2     :     0.002789
      f-2     :     0.002406
      f+3     :     0.001326
      f-3     :     0.001992
 15 H s       :     0.862150  s :     0.862150
      pz      :     0.015782  p :     0.044983
      px      :     0.012092
      py      :     0.017108
      dz2     :     0.000469  d :     0.002089
      dxz     :     0.000159
      dyz     :     0.000568
      dx2y2   :     0.000466
      dxy     :     0.000427
 16 H s       :     0.862131  s :     0.862131
      pz      :     0.015866  p :     0.044965
      px      :     0.011361
      py      :     0.017737
      dz2     :     0.000480  d :     0.002089
      dxz     :     0.000164
      dyz     :     0.000579
      dx2y2   :     0.000432
      dxy     :     0.000434


                     *******************************
                     * LOEWDIN POPULATION ANALYSIS *
                     *******************************

----------------------
LOEWDIN ATOMIC CHARGES
----------------------
   0 C :    0.056723
   1 C :    0.056874
   2 C :    0.005974
   3 C :   -0.277281
   4 C :   -0.276415
   5 C :    0.006020
   6 C :    0.092425
   7 H :   -0.039986
   8 H :   -0.039947
   9 H :   -0.031944
  10 H :   -0.031976
  11 H :   -0.027459
  12 H :   -0.027785
  13 S :    0.406159
  14 S :    0.405632
  15 H :   -0.138463
  16 H :   -0.138551

-------------------------------
LOEWDIN REDUCED ORBITAL CHARGES
-------------------------------
  0 C s       :     2.713001  s :     2.713001
      pz      :     0.884300  p :     2.789339
      px      :     0.877359
      py      :     1.027679
      dz2     :     0.057536  d :     0.397333
      dxz     :     0.043933
      dyz     :     0.112803
      dx2y2   :     0.077833
      dxy     :     0.105228
      f0      :     0.007244  f :     0.043604
      f+1     :     0.004768
      f-1     :     0.004110
      f+2     :     0.007902
      f-2     :     0.003684
      f+3     :     0.010207
      f-3     :     0.005690
  1 C s       :     2.713005  s :     2.713005
      pz      :     0.883905  p :     2.789084
      px      :     0.874924
      py      :     1.030255
      dz2     :     0.058100  d :     0.397423
      dxz     :     0.043568
      dyz     :     0.112716
      dx2y2   :     0.084217
      dxy     :     0.098821
      f0      :     0.007244  f :     0.043614
      f+1     :     0.004890
      f-1     :     0.004028
      f+2     :     0.008026
      f-2     :     0.003529
      f+3     :     0.010001
      f-3     :     0.005895
  2 C s       :     2.660166  s :     2.660166
      pz      :     0.916116  p :     2.764709
      px      :     0.904561
      py      :     0.944032
      dz2     :     0.083625  d :     0.512644
      dxz     :     0.110935
      dyz     :     0.093123
      dx2y2   :     0.158614
      dxy     :     0.066348
      f0      :     0.007435  f :     0.056506
      f+1     :     0.008134
      f-1     :     0.006717
      f+2     :     0.007895
      f-2     :     0.009854
      f+3     :     0.007201
      f-3     :     0.009270
  3 C s       :     2.753527  s :     2.753527
      pz      :     0.908880  p :     2.907086
      px      :     0.945543
      py      :     1.052663
      dz2     :     0.050358  d :     0.562622
      dxz     :     0.076529
      dyz     :     0.117741
      dx2y2   :     0.154499
      dxy     :     0.163494
      f0      :     0.004158  f :     0.054046
      f+1     :     0.005033
      f-1     :     0.004645
      f+2     :     0.009699
      f-2     :     0.004315
      f+3     :     0.016733
      f-3     :     0.009462
  4 C s       :     2.753615  s :     2.753615
      pz      :     0.907315  p :     2.905771
      px      :     0.948910
      py      :     1.049546
      dz2     :     0.051181  d :     0.562958
      dxz     :     0.075648
      dyz     :     0.119420
      dx2y2   :     0.152485
      dxy     :     0.164224
      f0      :     0.004176  f :     0.054071
      f+1     :     0.004868
      f-1     :     0.004843
      f+2     :     0.009913
      f-2     :     0.004130
      f+3     :     0.015395
      f-3     :     0.010746
  5 C s       :     2.660162  s :     2.660162
      pz      :     0.915818  p :     2.764761
      px      :     0.904324
      py      :     0.944619
      dz2     :     0.084820  d :     0.512558
      dxz     :     0.108672
      dyz     :     0.093478
      dx2y2   :     0.159596
      dxy     :     0.065993
      f0      :     0.007416  f :     0.056498
      f+1     :     0.007960
      f-1     :     0.006899
      f+2     :     0.008378
      f-2     :     0.009435
      f+3     :     0.007194
      f-3     :     0.009215
  6 C s       :     2.666446  s :     2.666446
      pz      :     0.919133  p :     2.761540
      px      :     0.975808
      py      :     0.866599
      dz2     :     0.061180  d :     0.437446
      dxz     :     0.129626
      dyz     :     0.099815
      dx2y2   :     0.100748
      dxy     :     0.046077
      f0      :     0.005031  f :     0.042144
      f+1     :     0.003699
      f-1     :     0.011086
      f+2     :     0.006837
      f-2     :     0.007744
      f+3     :     0.004151
      f-3     :     0.003596
  7 H s       :     0.854726  s :     0.854726
      pz      :     0.057380  p :     0.158697
      px      :     0.054099
      py      :     0.047218
      dz2     :     0.005311  d :     0.026562
      dxz     :     0.005357
      dyz     :     0.005672
      dx2y2   :     0.004985
      dxy     :     0.005238
  8 H s       :     0.854706  s :     0.854706
      pz      :     0.056911  p :     0.158679
      px      :     0.051044
      py      :     0.050725
      dz2     :     0.005217  d :     0.026562
      dxz     :     0.004748
      dyz     :     0.006216
      dx2y2   :     0.005020
      dxy     :     0.005360
  9 H s       :     0.852769  s :     0.852769
      pz      :     0.042688  p :     0.151671
      px      :     0.035771
      py      :     0.073212
      dz2     :     0.003143  d :     0.027504
      dxz     :     0.001072
      dyz     :     0.008570
      dx2y2   :     0.007194
      dxy     :     0.007525
 10 H s       :     0.852796  s :     0.852796
      pz      :     0.042362  p :     0.151676
      px      :     0.036324
      py      :     0.072990
      dz2     :     0.003066  d :     0.027504
      dxz     :     0.001031
      dyz     :     0.008549
      dx2y2   :     0.007361
      dxy     :     0.007498
 11 H s       :     0.850190  s :     0.850190
      pz      :     0.037063  p :     0.149694
      px      :     0.073341
      py      :     0.039290
      dz2     :     0.003277  d :     0.027576
      dxz     :     0.009036
      dyz     :     0.001740
      dx2y2   :     0.006633
      dxy     :     0.006889
 12 H s       :     0.850908  s :     0.850908
      pz      :     0.054489  p :     0.149440
      px      :     0.056322
      py      :     0.038629
      dz2     :     0.007258  d :     0.027438
      dxz     :     0.007577
      dyz     :     0.005479
      dx2y2   :     0.004047
      dxy     :     0.003077
 13 S s       :     5.351246  s :     5.351246
      pz      :     3.500437  p :     9.987506
      px      :     3.501429
      py      :     2.985641
      dz2     :     0.022180  d :     0.223533
      dxz     :     0.025551
      dyz     :     0.077906
      dx2y2   :     0.045397
      dxy     :     0.052498
      f0      :     0.002704  f :     0.031556
      f+1     :     0.002347
      f-1     :     0.003744
      f+2     :     0.005575
      f-2     :     0.007628
      f+3     :     0.005014
      f-3     :     0.004543
 14 S s       :     5.351083  s :     5.351083
      pz      :     3.489981  p :     9.987937
      px      :     3.450057
      py      :     3.047899
      dz2     :     0.021720  d :     0.223772
      dxz     :     0.029555
      dyz     :     0.075955
      dx2y2   :     0.049512
      dxy     :     0.047031
      f0      :     0.002624  f :     0.031575
      f+1     :     0.002813
      f-1     :     0.003587
      f+2     :     0.006636
      f-2     :     0.006435
      f+3     :     0.004253
      f-3     :     0.005227
 15 H s       :     0.914735  s :     0.914735
      pz      :     0.077785  p :     0.200003
      px      :     0.053030
      py      :     0.069189
      dz2     :     0.005183  d :     0.023725
      dxz     :     0.002365
      dyz     :     0.007042
      dx2y2   :     0.003544
      dxy     :     0.005591
 16 H s       :     0.914828  s :     0.914828
      pz      :     0.079041  p :     0.200009
      px      :     0.047644
      py      :     0.073325
      dz2     :     0.005388  d :     0.023714
      dxz     :     0.002301
      dyz     :     0.007205
      dx2y2   :     0.003679
      dxy     :     0.005141


                      *****************************
                      * MAYER POPULATION ANALYSIS *
                      *****************************

  NA   - Mulliken gross atomic population
  ZA   - Total nuclear charge
  QA   - Mulliken gross atomic charge
  VA   - Mayer's total valence
  BVA  - Mayer's bonded valence
  FA   - Mayer's free valence

  ATOM       NA         ZA         QA         VA         BVA        FA
  0 C      6.2233     6.0000    -0.2233     3.7655     3.7655    -0.0000
  1 C      6.2231     6.0000    -0.2231     3.7658     3.7658    -0.0000
  2 C      5.9961     6.0000     0.0039     3.7726     3.7726    -0.0000
  3 C      6.0475     6.0000    -0.0475     3.7243     3.7243     0.0000
  4 C      6.0457     6.0000    -0.0457     3.7253     3.7253    -0.0000
  5 C      5.9968     6.0000     0.0032     3.7729     3.7729     0.0000
  6 C      6.2034     6.0000    -0.2034     3.9468     3.9468    -0.0000
  7 H      0.8287     1.0000     0.1713     0.9732     0.9732    -0.0000
  8 H      0.8286     1.0000     0.1714     0.9732     0.9732    -0.0000
  9 H      0.8775     1.0000     0.1225     0.9883     0.9883     0.0000
 10 H      0.8775     1.0000     0.1225     0.9882     0.9882    -0.0000
 11 H      0.8926     1.0000     0.1074     0.9984     0.9984    -0.0000
 12 H      0.8924     1.0000     0.1076     0.9925     0.9925     0.0000
 13 S     16.1237    16.0000    -0.1237     2.1246     2.1246    -0.0000
 14 S     16.1247    16.0000    -0.1247     2.1234     2.1234     0.0000
 15 H      0.9092     1.0000     0.0908     1.0160     1.0160    -0.0000
 16 H      0.9092     1.0000     0.0908     1.0158     1.0158    -0.0000

  Mayer bond orders larger than 0.100000
B(  0-C ,  1-C ) :   1.8916 B(  0-C ,  5-C ) :   0.9306 B(  0-C ,  7-H ) :   0.9542 
B(  1-C ,  2-C ) :   0.9307 B(  1-C ,  8-H ) :   0.9542 B(  2-C ,  3-C ) :   0.9299 
B(  2-C ,  6-C ) :   0.9588 B(  2-C ,  9-H ) :   0.9912 B(  3-C ,  4-C ) :   1.7352 
B(  3-C , 14-S ) :   1.0329 B(  4-C ,  5-C ) :   0.9300 B(  4-C , 13-S ) :   1.0337 
B(  5-C ,  6-C ) :   0.9588 B(  5-C , 10-H ) :   0.9912 B(  6-C , 11-H ) :   0.9918 
B(  6-C , 12-H ) :   0.9896 B( 13-S , 15-H ) :   1.0116 B( 14-S , 16-H ) :   1.0114 


-------
TIMINGS
-------

Total SCF time: 0 days 0 hours 8 min 16 sec 

Total time                  ....     496.878 sec
Sum of individual times     ....     496.154 sec  ( 99.9%)

Fock matrix formation       ....     494.423 sec  ( 99.5%)
Diagonalization             ....       0.378 sec  (  0.1%)
Density matrix formation    ....       0.016 sec  (  0.0%)
Population analysis         ....       0.053 sec  (  0.0%)
Initial guess               ....       0.547 sec  (  0.1%)
Orbital Transformation      ....       0.000 sec  (  0.0%)
Orbital Orthonormalization  ....       0.000 sec  (  0.0%)
DIIS solution               ....       0.157 sec  (  0.0%)
SOSCF solution              ....       0.387 sec  (  0.1%)

Maximum memory used throughout the entire SCF-calculation: 247.6 MB


           ************************************************************
           *        Program running with 4 parallel MPI-processes     *
           *              working on a common directory               *
           ************************************************************

------------------------------------------------------------------------------
                                ORCA  MP2 
------------------------------------------------------------------------------

MP2 will be done in the AO integral direct mode
The Q1-step will be done using symmetric double matrices
Dimension of the basis                    ...  390
Memory devoted for MP2                    ... 38000 MB   
Memory needed for all in one shot         ... 2497 MB
Number of MOs that can be treated together...  166      
MP2 density construction                  ... relaxed
The MP2 gradient is requested => amplitudes will be stored on disk
Total number of MOs              ...   41
Number of MOs treated per batch  ...   11 
Number of batches necessary      ...    1 
OPERATORS   0/  0 PASS   0
-----------------------------------------------
 MP2 CORRELATION ENERGY   :     -1.673675792 Eh
-----------------------------------------------


---------------------
MP2 DENSITY FORMATION
---------------------

Completing the external part of the density      ... done
Storing the unrelaxed density                    ... done

Calculating G(D)                                 ... done
Completing the Lagrangian                        ... done
Solving the Z-vector equations                   ... 

------------------------------------------------------------------------------
                           ORCA CP-SCF CALCULATION
------------------------------------------------------------------------------

Input orbitals are from        ... NBD_S_MP2.gbw
Input Perturbation             ... NBD_S_MP2.pin.tmp
Wavefunction output            ... NBD_S_MP2.pout.tmp
Perturbation mode              ... Real perturbation (singlet)
Solver                         ... POPLE
Max. number of iterations      ... 128
Convergence tolerance          ... 3.000e-05
Integral handling              ... Direct
Number of perturbations        ... 1
Number of operators            ... 1
Orbital ranges used for CP-SCF:
 Operator 0:  Orbitals   0... 40  to  41...389
Variables per perturbation     ... 14309
Memory available               ... 37959.5 MB
Memory needed per perturbation ...  10.7 MB
Perturbations treated per batch... 1
Number of batches              ... 1
     CP-SCF ITERATION   0:   1.1432e-01 (  45.5 sec)
     CP-SCF ITERATION   1:   3.2021e-02 (  46.2 sec)
     CP-SCF ITERATION   2:   9.3177e-03 (  46.6 sec)
     CP-SCF ITERATION   3:   2.9598e-03 (  46.5 sec)
     CP-SCF ITERATION   4:   9.8074e-04 (  46.6 sec)
     CP-SCF ITERATION   5:   3.1641e-04 (  46.6 sec)
     CP-SCF ITERATION   6:   1.0061e-04 (  46.7 sec)
     CP-SCF ITERATION   7:   3.1877e-05 (  46.7 sec)
     CP-SCF ITERATION   8:   1.0625e-05 (  46.7 sec)
                    *** THE CP-SCF HAS CONVERGED ***
                                                 ... done
Finalizing the relaxed density                   ... done
Transforming P to the AO basis                   ... done
Storing the relaxed density                      ... done

------------------------------------
[...]
     30      -0.161231  -0.364944  -0.438920  -0.040655   0.007840   0.352693
     31      -0.226635   0.056769  -0.112304  -0.112435  -0.010550   0.031084
     32       0.608768  -0.325276   0.147239   0.142406  -0.006126   0.129753
     33      -0.028023  -0.006697   0.031660   0.018253   0.272059  -0.034170
     34      -0.000455   0.120727  -0.571116  -0.329289   0.020207  -0.002082
     35       0.133868  -0.000932   0.004516   0.002592   0.651056  -0.024502
     36      -0.026271  -0.027485   0.005308   0.024835  -0.548737   0.021468
     37      -0.000638   0.495663  -0.095846  -0.447976  -0.027001   0.000938
     38       0.113597  -0.003885   0.000771   0.003528   0.434577  -0.033183
     39      -0.001961   0.002368   0.004669   0.002478   0.000568  -0.005527
     40      -0.000484   0.001770   0.003108   0.000208   0.000504  -0.011529
     41       0.000637  -0.001754  -0.003440  -0.001328  -0.000315   0.003267
     42      -0.002000  -0.002551  -0.004988  -0.002487   0.000621  -0.006770
     43       0.000272   0.001525   0.002626  -0.000046  -0.000443   0.010892
     44       0.000630   0.001729   0.003397   0.001328  -0.000308   0.003090
     45       0.005491  -0.003473  -0.009986  -0.014699   0.000768  -0.091200
     46      -0.002099  -0.003302  -0.010449  -0.011202   0.002048  -0.067216
     47       0.003687   0.001230   0.006710   0.008080  -0.002473   0.067534
     48       0.005212   0.003814   0.011079   0.015847   0.000989  -0.098088
     49       0.002758  -0.002910  -0.009375  -0.009619  -0.001990   0.057740
     50       0.003646  -0.001180  -0.006553  -0.007915  -0.002443   0.066595
                 42         43         44         45         46         47    
      0      -0.008789  -0.000013  -0.000062  -0.000264   0.000985  -0.000433
      1      -0.336213   0.000156   0.000019   0.000110  -0.001850   0.001510
      2      -0.026582   0.000078  -0.000056   0.000192   0.000967  -0.000590
      3      -0.045869   0.000008   0.000059  -0.000250  -0.000772  -0.000268
      4       0.332724  -0.000154   0.000034  -0.000135  -0.001953  -0.001570
      5      -0.031845   0.000084   0.000052   0.000194  -0.000934  -0.000571
      6       0.007787  -0.000361  -0.000039  -0.000358   0.001046   0.000982
      7      -0.080701   0.000206   0.000298  -0.005288   0.056921   0.058034
      8      -0.011247  -0.000123   0.000092   0.002896  -0.019041  -0.018544
      9      -0.034674   0.000371   0.000045   0.000021  -0.000631  -0.001334
     10       0.410162  -0.002054  -0.000602  -0.000179  -0.000043   0.000639
     11       0.011414   0.000098  -0.000378   0.000295   0.000428   0.000446
     12       0.010854   0.000143   0.000015   0.000001   0.000639  -0.001252
     13      -0.411275   0.002051  -0.000701   0.000185   0.000026  -0.000776
     14       0.017871   0.000085   0.000383   0.000293  -0.000430   0.000455
     15      -0.001167  -0.000336   0.000023  -0.000943  -0.007392   0.007363
     16       0.080884  -0.000232   0.000312   0.005263   0.057092  -0.057513
     17      -0.012520  -0.000125  -0.000091   0.002814   0.018252  -0.017525
     18       0.000850   0.000085   0.000003   0.013230   0.000047   0.002430
     19       0.000178   0.000003  -0.000083   0.000227  -0.000956   0.000061
     20       0.016706   0.000011   0.000000  -0.064286   0.000036  -0.008916
     21       0.208184   0.000099  -0.000069   0.001047  -0.013812   0.012982
     22       0.057227  -0.000055  -0.000113  -0.000705   0.017475  -0.016377
     23       0.249175  -0.000056   0.000068  -0.000937  -0.016336   0.014724
     24       0.213009   0.000094   0.000077   0.000967   0.011714   0.011147
     25      -0.029957   0.000059  -0.000109   0.000804   0.019039   0.018050
     26       0.249855  -0.000063  -0.000063  -0.000944   0.015958   0.014545
     27      -0.079808   0.003110   0.002019   0.002226  -0.012542  -0.012204
     28      -0.000773   0.001945   0.000589   0.075130  -0.666844  -0.666493
     29       0.220711  -0.002042  -0.000771  -0.027211   0.218700   0.218286
     30      -0.079604   0.003202  -0.002238   0.010545   0.086874  -0.085471
     31      -0.004595  -0.001600   0.000457  -0.074870  -0.668667   0.660412
     32       0.220735  -0.001974   0.000865  -0.026042  -0.209466   0.206573
     33      -0.051474   0.000665  -0.000045  -0.641836   0.000151  -0.076257
     34      -0.003855   0.000049   0.000501  -0.033918   0.001391  -0.004001
     35      -0.127873   0.000019  -0.000004   0.211787  -0.000094   0.028169
     36       0.104221  -0.000817   0.000023   0.490652  -0.000282   0.052178
     37       0.005192  -0.000052  -0.000053   0.031393   0.001885   0.003376
     38      -0.072818  -0.000752   0.000019   0.532115  -0.000220   0.060796
     39       0.003965  -0.004996   0.005252   0.000009  -0.000049   0.000052
     40       0.012890   0.017086  -0.017995   0.000007  -0.000090   0.000148
     41      -0.002128   0.012207  -0.012840  -0.000027   0.000011  -0.000010
     42       0.005368  -0.003230  -0.003067   0.000010   0.000058   0.000068
     43      -0.012398  -0.018235  -0.017364  -0.000007  -0.000083  -0.000142
     44      -0.001929   0.013130   0.012488  -0.000027  -0.000010  -0.000008
     45       0.112984   0.156671  -0.164210  -0.000227  -0.001648   0.002347
     46       0.085315  -0.548132   0.576293  -0.000569  -0.000280  -0.001010
     47      -0.090285  -0.386462   0.406894  -0.000349   0.000793  -0.001685
     48       0.121738   0.099833   0.094421  -0.000288   0.001655   0.002230
     49      -0.073664   0.584600   0.555669   0.000535  -0.000115   0.001237
     50      -0.089083  -0.415816  -0.395828  -0.000358  -0.000780  -0.001707
                 48         49         50    
      0      -0.000156   0.032144  -0.033157
      1       0.000355  -0.034410   0.044107
      2       0.000021   0.036922  -0.037620
      3      -0.000115  -0.028105  -0.028056
      4      -0.000369  -0.038310  -0.048098
      5       0.000027  -0.036338  -0.036906
      6       0.001365   0.000648   0.001189
      7      -0.000203  -0.002389  -0.002271
      8       0.000344   0.001457   0.001795
      9      -0.000220   0.000087   0.000353
     10       0.000400   0.000131   0.000043
     11       0.000017  -0.000125  -0.000070
     12      -0.000175  -0.000101   0.000356
     13      -0.000421   0.000123  -0.000005
     14       0.000024   0.000123  -0.000070
     15       0.001334  -0.000379   0.000929
     16       0.000356  -0.002470   0.002416
     17       0.000339  -0.001419   0.001758
     18       0.093580  -0.000018   0.000303
     19       0.005359   0.000324   0.000026
     20       0.021675  -0.000002   0.001175
     21      -0.001825  -0.373729   0.372218
     22       0.000444   0.411450  -0.413618
     23      -0.000562  -0.432289   0.430270
     24      -0.001769   0.325503   0.323968
     25      -0.000658   0.456814   0.459059
     26      -0.000560   0.425321   0.423539
     27      -0.001547  -0.000959  -0.002465
     28       0.003204   0.025273   0.022543
     29      -0.001446  -0.009411  -0.009364
     30      -0.001186  -0.001848   0.000050
     31      -0.003348   0.025383  -0.022818
     32      -0.001385   0.009018  -0.009005
     33      -0.684291   0.000003   0.002042
     34      -0.035995  -0.000096   0.000106
     35       0.246573   0.000002  -0.000883
     36      -0.446597   0.000053  -0.002503
     37      -0.028774  -0.001017  -0.000160
     38      -0.509977   0.000003  -0.002653
     39      -0.000043   0.000005  -0.000012
     40      -0.000001  -0.000007  -0.000022
     41      -0.000014  -0.000008   0.000021
     42      -0.000043  -0.000005  -0.000014
     43      -0.000004  -0.000008   0.000021
     44      -0.000014   0.000009   0.000020
     45       0.000333  -0.000030  -0.000205
     46       0.000142   0.000090   0.000114
     47       0.000402   0.000073   0.000075
     48       0.000347   0.000020  -0.000191
     49      -0.000098   0.000095  -0.000134
     50       0.000404  -0.000076   0.000077


-----------
IR SPECTRUM
-----------

 Mode   freq       eps      Int      T**2         TX        TY        TZ
       cm**-1   L/(mol*cm) km/mol    a.u.
----------------------------------------------------------------------------
  6:    109.01   0.000696    3.52  0.001992  (-0.002459  0.044561 -0.000370)
  7:    129.25   0.000175    0.89  0.000423  (-0.004038 -0.000054  0.020163)
  8:    148.57   0.000019    0.10  0.000041  (-0.002235 -0.000199 -0.005959)
  9:    174.56   0.002559   12.93  0.004575  ( 0.003735 -0.067534  0.000545)
 10:    244.39   0.005182   26.19  0.006617  ( 0.052126  0.003419  0.062358)
 11:    293.33   0.000202    1.02  0.000215  (-0.000793  0.014627 -0.000104)
 12:    425.91   0.000402    2.03  0.000294  (-0.017077 -0.000932 -0.001380)
 13:    426.77   0.000029    0.15  0.000021  ( 0.000157 -0.004588  0.000024)
 14:    519.66   0.000919    4.64  0.000552  (-0.023433 -0.001413  0.000839)
 15:    520.94   0.000147    0.74  0.000088  (-0.000848  0.009342 -0.000062)
 16:    573.54   0.000535    2.70  0.000291  ( 0.004135  0.000100 -0.016554)
 17:    639.12   0.000546    2.76  0.000267  (-0.000896  0.016308 -0.000130)
 18:    732.24   0.009881   49.93  0.004211  (-0.049455 -0.002413  0.041944)
 19:    779.93   0.002389   12.07  0.000956  (-0.001708  0.030870 -0.000246)
 20:    819.86   0.001739    8.79  0.000662  ( 0.019557  0.000951 -0.016687)
 21:    888.36   0.000177    0.89  0.000062  (-0.000438  0.007875 -0.000072)
 22:    901.93   0.000617    3.12  0.000213  (-0.000807  0.014589 -0.000111)
 23:    916.40   0.000064    0.32  0.000022  ( 0.000225 -0.004672  0.000106)
 24:    916.60   0.000301    1.52  0.000102  (-0.004039 -0.000118  0.009274)
 25:    933.20   0.000588    2.97  0.000197  ( 0.001358  0.000197  0.013951)
 26:    958.07   0.000082    0.42  0.000027  (-0.004367 -0.000273 -0.002763)
 27:    979.22   0.000067    0.34  0.000021  ( 0.000259 -0.004609  0.000042)
 28:    993.26   0.000054    0.27  0.000017  (-0.000222  0.004105 -0.000025)
 29:   1026.55   0.000317    1.60  0.000096  (-0.009459 -0.000547 -0.002546)
 30:   1071.00   0.000008    0.04  0.000002  ( 0.001353  0.000093  0.000661)
 31:   1127.74   0.004576   23.13  0.001266  ( 0.001970 -0.035530  0.000280)
 32:   1132.73   0.000074    0.37  0.000020  (-0.002026 -0.000153 -0.004023)
 33:   1156.49   0.000530    2.68  0.000143  (-0.000659  0.011945 -0.000093)
 34:   1185.42   0.001037    5.24  0.000273  (-0.000916  0.016493 -0.000130)
 35:   1231.29   0.000231    1.17  0.000059  (-0.003772 -0.000252 -0.006658)
 36:   1269.81   0.000745    3.76  0.000183  (-0.000039  0.000114  0.013527)
 37:   1276.00   0.000022    0.11  0.000005  ( 0.000126 -0.002303  0.000014)
 38:   1289.88   0.000449    2.27  0.000109  ( 0.000578 -0.010406  0.000088)
 39:   1330.40   0.004605   23.27  0.001080  ( 0.001815 -0.032813  0.000246)
 40:   1495.56   0.000786    3.97  0.000164  (-0.004563 -0.000160  0.011961)
 41:   1591.29   0.000845    4.27  0.000166  ( 0.001907  0.000014 -0.012735)
 42:   1614.23   0.003669   18.54  0.000709  (-0.023398 -0.001209  0.012664)
 43:   2745.91   0.000045    0.22  0.000005  ( 0.002187 -0.000050  0.000526)
 44:   2746.81   0.000405    2.05  0.000046  ( 0.000323 -0.006778  0.000040)
 45:   3105.57   0.005770   29.16  0.000580  ( 0.006595  0.000184 -0.023157)
 46:   3155.89   0.006621   33.46  0.000655  (-0.001423  0.025548 -0.000170)
 47:   3159.09   0.001162    5.87  0.000115  ( 0.002909  0.000155 -0.010309)
 48:   3172.99   0.004071   20.57  0.000400  ( 0.019596  0.001115  0.003890)
 49:   3257.76   0.000131    0.66  0.000013  ( 0.000200 -0.003537  0.000037)
 50:   3287.30   0.000908    4.59  0.000086  (-0.007568 -0.000461 -0.005354)

* The epsilon (eps) is given for a Dirac delta lineshape.
** The dipole moment derivative (T) already includes vibrational overlap.

The first frequency considered to be a vibration is 6
The total number of vibrations considered is 45


--------------------------
THERMOCHEMISTRY AT 298.15K
--------------------------

Temperature         ... 298.15 K
Pressure            ... 1.00 atm
Total Mass          ... 156.26 AMU

Throughout the following assumptions are being made:
  (1) The electronic state is orbitally nondegenerate
  (2) There are no thermally accessible electronically excited states
  (3) Hindered rotations indicated by low frequency modes are not
      treated as such but are treated as vibrations and this may
      cause some error
  (4) All equations used are the standard statistical mechanics
      equations for an ideal gas
  (5) All vibrations are strictly harmonic

freq.     109.01  E(vib)   ...       0.45 
freq.     129.25  E(vib)   ...       0.43 
freq.     148.57  E(vib)   ...       0.41 
freq.     174.56  E(vib)   ...       0.38 
freq.     244.39  E(vib)   ...       0.31 
freq.     293.33  E(vib)   ...       0.27 
freq.     425.91  E(vib)   ...       0.18 
freq.     426.77  E(vib)   ...       0.18 
freq.     519.66  E(vib)   ...       0.13 
freq.     520.94  E(vib)   ...       0.13 
freq.     573.54  E(vib)   ...       0.11 
freq.     639.12  E(vib)   ...       0.09 
freq.     732.24  E(vib)   ...       0.06 
freq.     779.93  E(vib)   ...       0.05 
freq.     819.86  E(vib)   ...       0.05 
freq.     888.36  E(vib)   ...       0.04 
freq.     901.93  E(vib)   ...       0.03 
freq.     916.40  E(vib)   ...       0.03 
freq.     916.60  E(vib)   ...       0.03 
freq.     933.20  E(vib)   ...       0.03 
freq.     958.07  E(vib)   ...       0.03 
freq.     979.22  E(vib)   ...       0.03 
freq.     993.26  E(vib)   ...       0.02 
freq.    1026.55  E(vib)   ...       0.02 
freq.    1071.00  E(vib)   ...       0.02 
freq.    1127.74  E(vib)   ...       0.01 
freq.    1132.73  E(vib)   ...       0.01 
freq.    1156.49  E(vib)   ...       0.01 
freq.    1185.42  E(vib)   ...       0.01 
freq.    1231.29  E(vib)   ...       0.01 
freq.    1269.81  E(vib)   ...       0.01 
freq.    1276.00  E(vib)   ...       0.01 
freq.    1289.88  E(vib)   ...       0.01 
freq.    1330.40  E(vib)   ...       0.01 
freq.    1495.56  E(vib)   ...       0.00 
freq.    1591.29  E(vib)   ...       0.00 
freq.    1614.23  E(vib)   ...       0.00 
freq.    2745.91  E(vib)   ...       0.00 
freq.    2746.81  E(vib)   ...       0.00 
freq.    3105.57  E(vib)   ...       0.00 
freq.    3155.89  E(vib)   ...       0.00 
freq.    3159.09  E(vib)   ...       0.00 
freq.    3172.99  E(vib)   ...       0.00 
freq.    3257.76  E(vib)   ...       0.00 
freq.    3287.30  E(vib)   ...       0.00 

------------
INNER ENERGY
------------

The inner energy is: U= E(el) + E(ZPE) + E(vib) + E(rot) + E(trans)
    E(el)   - is the total energy from the electronic structure calculation
              = E(kin-el) + E(nuc-el) + E(el-el) + E(nuc-nuc)
    E(ZPE)  - the the zero temperature vibrational energy from the frequency calculation
    E(vib)  - the the finite temperature correction to E(ZPE) due to population
              of excited vibrational states
    E(rot)  - is the rotational thermal energy
    E(trans)- is the translational thermal energy

Summary of contributions to the inner energy U:
Electronic energy                ...  -1066.51173604 Eh
Zero point energy                ...      0.12861122 Eh      80.70 kcal/mol
Thermal vibrational correction   ...      0.00572514 Eh       3.59 kcal/mol
Thermal rotational correction    ...      0.00141627 Eh       0.89 kcal/mol
Thermal translational correction ...      0.00141627 Eh       0.89 kcal/mol
-----------------------------------------------------------------------
Total thermal energy                  -1066.37456714 Eh


Summary of corrections to the electronic energy:
(perhaps to be used in another calculation)
Total thermal correction                  0.00855769 Eh       5.37 kcal/mol
Non-thermal (ZPE) correction              0.12861122 Eh      80.70 kcal/mol
-----------------------------------------------------------------------
Total correction                          0.13716890 Eh      86.07 kcal/mol


--------
ENTHALPY
--------

The enthalpy is H = U + kB*T
                kB is Boltzmann's constant
Total free energy                 ...  -1066.37456714 Eh 
Thermal Enthalpy correction       ...      0.00094421 Eh       0.59 kcal/mol
-----------------------------------------------------------------------
Total Enthalpy                    ...  -1066.37362293 Eh


Note: Only C1 symmetry has been detected, increase convergence thresholds 
      if your molecule has a higher symmetry. Symmetry factor of 1.0 is   
      used for the rotational entropy correction. 
 

Note: Rotational entropy computed according to Herzberg 
Infrared and Raman Spectra, Chapter V,1, Van Nostrand Reinhold, 1945 
Point Group:  C1, Symmetry Number:   1  
Rotational constants in cm-1:     0.051451     0.041638     0.027683 

Vibrational entropy computed according to the QRRHO of S. Grimme
Chem.Eur.J. 2012 18 9955


-------
ENTROPY
-------

The entropy contributions are T*S = T*(S(el)+S(vib)+S(rot)+S(trans))
     S(el)   - electronic entropy
     S(vib)  - vibrational entropy
     S(rot)  - rotational entropy
     S(trans)- translational entropy
The entropies will be listed as multiplied by the temperature to get
units of energy

Electronic entropy                ...      0.00000000 Eh      0.00 kcal/mol
Vibrational entropy               ...      0.00962148 Eh      6.04 kcal/mol
Rotational entropy                ...      0.01410557 Eh      8.85 kcal/mol
Translational entropy             ...      0.01950341 Eh     12.24 kcal/mol
-----------------------------------------------------------------------
Final entropy term                ...      0.04323046 Eh     27.13 kcal/mol

In case the symmetry of your molecule has not been determined correctly
or in case you have a reason to use a different symmetry number we print 
out the resulting rotational entropy values for sn=1,12 :
 --------------------------------------------------------
|  sn= 1 | S(rot)=       0.01410557 Eh      8.85 kcal/mol|
|  sn= 2 | S(rot)=       0.01345111 Eh      8.44 kcal/mol|
|  sn= 3 | S(rot)=       0.01306828 Eh      8.20 kcal/mol|
|  sn= 4 | S(rot)=       0.01279665 Eh      8.03 kcal/mol|
|  sn= 5 | S(rot)=       0.01258597 Eh      7.90 kcal/mol|
|  sn= 6 | S(rot)=       0.01241382 Eh      7.79 kcal/mol|
|  sn= 7 | S(rot)=       0.01226828 Eh      7.70 kcal/mol|
|  sn= 8 | S(rot)=       0.01214220 Eh      7.62 kcal/mol|
|  sn= 9 | S(rot)=       0.01203099 Eh      7.55 kcal/mol|
|  sn=10 | S(rot)=       0.01193151 Eh      7.49 kcal/mol|
|  sn=11 | S(rot)=       0.01184152 Eh      7.43 kcal/mol|
|  sn=12 | S(rot)=       0.01175937 Eh      7.38 kcal/mol|
 --------------------------------------------------------


-------------------
GIBBS FREE ENERGY
-------------------

The Gibbs free energy is G = H - T*S

Total enthalpy                    ...  -1066.37362293 Eh 
Total entropy correction          ...     -0.04323046 Eh    -27.13 kcal/mol
-----------------------------------------------------------------------
Final Gibbs free energy         ...  -1066.41685339 Eh

For completeness - the Gibbs free energy minus the electronic energy
G-E(el)                           ...      0.09488266 Eh     59.54 kcal/mol


Timings for individual modules:

Sum of individual times         ...   114977.255 sec (=1916.288 min)
GTO integral calculation        ...        8.603 sec (=   0.143 min)   0.0 %
SCF iterations                  ...     2210.728 sec (=  36.845 min)   1.9 %
Solution of CP-SCF eqns.        ...      757.642 sec (=  12.627 min)   0.7 %
MP2 module                      ...    15626.517 sec (= 260.442 min)  13.6 %
Geometry relaxation             ...        0.910 sec (=   0.015 min)   0.0 %
Analytical frequency calculation...    96372.856 sec (=1606.214 min)  83.8 %
                             ****ORCA TERMINATED NORMALLY****
TOTAL RUN TIME: 1 days 7 hours 56 minutes 29 seconds 898 msec
