 Entering Gaussian System, Link 0=/opt/gaussian/g16/sse4/g16/g16
 Initial command:
 /opt/gaussian/g16/sse4/g16/l1.exe "/scratch/1543642/Gau-25968.inp" -scrdir="/scratch/1543642/"
 Entering Link 1 = /opt/gaussian/g16/sse4/g16/l1.exe PID=     25970.
  
 Copyright (c) 1988,1990,1992,1993,1995,1998,2003,2009,2016,
            Gaussian, Inc.  All Rights Reserved.
  
 This is part of the Gaussian(R) 16 program.  It is based on
 the Gaussian(R) 09 system (copyright 2009, Gaussian, Inc.),
 the Gaussian(R) 03 system (copyright 2003, Gaussian, Inc.),
 the Gaussian(R) 98 system (copyright 1998, Gaussian, Inc.),
 the Gaussian(R) 94 system (copyright 1995, Gaussian, Inc.),
 the Gaussian 92(TM) system (copyright 1992, Gaussian, Inc.),
 the Gaussian 90(TM) system (copyright 1990, Gaussian, Inc.),
 the Gaussian 88(TM) system (copyright 1988, Gaussian, Inc.),
 the Gaussian 86(TM) system (copyright 1986, Carnegie Mellon
 University), and the Gaussian 82(TM) system (copyright 1983,
 Carnegie Mellon University). Gaussian is a federally registered
 trademark of Gaussian, Inc.
  
 This software contains proprietary and confidential information,
 including trade secrets, belonging to Gaussian, Inc.
  
 This software is provided under written license and may be
 used, copied, transmitted, or stored only in accord with that
 written license.
  
 The following legend is applicable only to US Government
 contracts under FAR:
  
                    RESTRICTED RIGHTS LEGEND
  
 Use, reproduction and disclosure by the US Government is
 subject to restrictions as set forth in subparagraphs (a)
 and (c) of the Commercial Computer Software - Restricted
 Rights clause in FAR 52.227-19.
  
 Gaussian, Inc.
 340 Quinnipiac St., Bldg. 40, Wallingford CT 06492
  
  
 ---------------------------------------------------------------
 Warning -- This program may not be used in any manner that
 competes with the business of Gaussian, Inc. or will provide
 assistance to any competitor of Gaussian, Inc.  The licensee
 of this program is prohibited from giving any competitor of
 Gaussian, Inc. access to this program.  By using this program,
 the user acknowledges that Gaussian, Inc. is engaged in the
 business of creating and licensing software in the field of
 computational chemistry and represents and warrants to the
 licensee that it is not a competitor of Gaussian, Inc. and that
 it will not use this program in any manner prohibited above.
 ---------------------------------------------------------------
  

 Cite this work as:
 Gaussian 16, Revision A.03,
 M. J. Frisch, G. W. Trucks, H. B. Schlegel, G. E. Scuseria, 
 M. A. Robb, J. R. Cheeseman, G. Scalmani, V. Barone, 
 G. A. Petersson, H. Nakatsuji, X. Li, M. Caricato, A. V. Marenich, 
 J. Bloino, B. G. Janesko, R. Gomperts, B. Mennucci, H. P. Hratchian, 
 J. V. Ortiz, A. F. Izmaylov, J. L. Sonnenberg, D. Williams-Young, 
 F. Ding, F. Lipparini, F. Egidi, J. Goings, B. Peng, A. Petrone, 
 T. Henderson, D. Ranasinghe, V. G. Zakrzewski, J. Gao, N. Rega, 
 G. Zheng, W. Liang, M. Hada, M. Ehara, K. Toyota, R. Fukuda, 
 J. Hasegawa, M. Ishida, T. Nakajima, Y. Honda, O. Kitao, H. Nakai, 
 T. Vreven, K. Throssell, J. A. Montgomery, Jr., J. E. Peralta, 
 F. Ogliaro, M. J. Bearpark, J. J. Heyd, E. N. Brothers, K. N. Kudin, 
 V. N. Staroverov, T. A. Keith, R. Kobayashi, J. Normand, 
 K. Raghavachari, A. P. Rendell, J. C. Burant, S. S. Iyengar, 
 J. Tomasi, M. Cossi, J. M. Millam, M. Klene, C. Adamo, R. Cammi, 
 J. W. Ochterski, R. L. Martin, K. Morokuma, O. Farkas, 
 J. B. Foresman, and D. J. Fox, Gaussian, Inc., Wallingford CT, 2016.
 
 ******************************************
 Gaussian 16:  ES64L-G16RevA.03 25-Dec-2016
                30-Sep-2021 
 ******************************************
 %chk=6-311G_dp.chk
 ----------------------------------------------
 # opt freq b3lyp/6-311g(d,p) geom=connectivity
 ----------------------------------------------
 1/18=20,19=15,26=3,38=1,57=2/1,3;
 2/9=110,12=2,17=6,18=5,40=1/2;
 3/5=4,6=6,7=101,11=2,25=1,30=1,71=1,74=-5/1,2,3;
 4//1;
 5/5=2,38=5/2;
 6/7=2,8=2,9=2,10=2,28=1/1;
 7//1,2,3,16;
 1/18=20,19=15,26=3/3(2);
 2/9=110/2;
 99//99;
 2/9=110/2;
 3/5=4,6=6,7=101,11=2,25=1,30=1,71=1,74=-5/1,2,3;
 4/5=5,16=3,69=1/1;
 5/5=2,38=5/2;
 7//1,2,3,16;
 1/18=20,19=15,26=3/3(-5);
 2/9=110/2;
 6/7=2,8=2,9=2,10=2,19=2,28=1/1;
 99/9=1/99;
 -------------------
 Title Card Required
 -------------------
 Symbolic Z-matrix:
 Charge =  1 Multiplicity = 2
 N                    -1.88571  -1.4       0. 
 H                    -1.55239  -2.34281   0. 
 H                    -1.55238  -0.9286    0.8165 
 H                    -1.55238  -0.9286   -0.8165 
 

 GradGradGradGradGradGradGradGradGradGradGradGradGradGradGradGradGradGrad
 Berny optimization.
 Initialization pass.
                           ----------------------------
                           !    Initial Parameters    !
                           ! (Angstroms and Degrees)  !
 --------------------------                            --------------------------
 ! Name  Definition              Value          Derivative Info.                !
 --------------------------------------------------------------------------------
 ! R1    R(1,2)                  1.0            estimate D2E/DX2                !
 ! R2    R(1,3)                  1.0            estimate D2E/DX2                !
 ! R3    R(1,4)                  1.0            estimate D2E/DX2                !
 ! A1    A(2,1,3)              109.4712         estimate D2E/DX2                !
 ! A2    A(2,1,4)              109.4712         estimate D2E/DX2                !
 ! A3    A(3,1,4)              109.4712         estimate D2E/DX2                !
 ! D1    D(2,1,4,3)           -120.0            estimate D2E/DX2                !
 --------------------------------------------------------------------------------
 Trust Radius=3.00D-01 FncErr=1.00D-07 GrdErr=1.00D-06 EigMax=2.50D+02 EigMin=1.00D-04
 Number of steps in this run=     20 maximum allowed number of steps=    100.
 GradGradGradGradGradGradGradGradGradGradGradGradGradGradGradGradGradGrad

                          Input orientation:                          
 ---------------------------------------------------------------------
 Center     Atomic      Atomic             Coordinates (Angstroms)
 Number     Number       Type             X           Y           Z
 ---------------------------------------------------------------------
      1          7           0       -1.885714   -1.400000    0.000000
      2          1           0       -1.552392   -2.342813    0.000000
      3          1           0       -1.552375   -0.928600    0.816497
      4          1           0       -1.552375   -0.928600   -0.816497
 ---------------------------------------------------------------------
                    Distance matrix (angstroms):
                    1          2          3          4
     1  N    0.000000
     2  H    1.000000   0.000000
     3  H    1.000000   1.632993   0.000000
     4  H    1.000000   1.632993   1.632993   0.000000
 Stoichiometry    H3N(1+,2)
 Framework group  C3V[C3(N),3SGV(H)]
 Deg. of freedom     2
 Full point group                 C3V     NOp   6
 Largest Abelian subgroup         CS      NOp   2
 Largest concise Abelian subgroup CS      NOp   2
                         Standard orientation:                         
 ---------------------------------------------------------------------
 Center     Atomic      Atomic             Coordinates (Angstroms)
 Number     Number       Type             X           Y           Z
 ---------------------------------------------------------------------
      1          7           0       -0.000000    0.000000    0.100000
      2          1           0        0.000000    0.942809   -0.233333
      3          1           0       -0.816497   -0.471405   -0.233333
      4          1           0        0.816497   -0.471405   -0.233333
 ---------------------------------------------------------------------
 Rotational constants (GHZ):         311.9519873         311.9519873         188.0456642
 Standard basis: 6-311G(d,p) (5D, 7F)
 There are    25 symmetry adapted cartesian basis functions of A'  symmetry.
 There are    12 symmetry adapted cartesian basis functions of A"  symmetry.
 There are    24 symmetry adapted basis functions of A'  symmetry.
 There are    12 symmetry adapted basis functions of A"  symmetry.
    36 basis functions,    56 primitive gaussians,    37 cartesian basis functions
     5 alpha electrons        4 beta electrons
       nuclear repulsion energy        12.0848820706 Hartrees.
 NAtoms=    4 NActive=    4 NUniq=    2 SFac= 4.00D+00 NAtFMM=   60 NAOKFM=F Big=F
 Integral buffers will be    131072 words long.
 Raffenetti 2 integral format.
 Two-electron integral symmetry is turned on.
 One-electron integrals computed using PRISM.
 NBasis=    36 RedAO= T EigKep=  1.28D-02  NBF=    24    12
 NBsUse=    36 1.00D-06 EigRej= -1.00D+00 NBFU=    24    12
 ExpMin= 1.03D-01 ExpMax= 6.29D+03 ExpMxC= 9.49D+02 IAcc=3 IRadAn=         5 AccDes= 0.00D+00
 Harris functional with IExCor=  402 and IRadAn=       5 diagonalized for initial guess.
 HarFok:  IExCor=  402 AccDes= 0.00D+00 IRadAn=         5 IDoV= 1 UseB2=F ITyADJ=14
 ICtDFT=  3500011 ScaDFX=  1.000000  1.000000  1.000000  1.000000
 FoFCou: FMM=F IPFlag=           0 FMFlag=      100000 FMFlg1=           0
         NFxFlg=           0 DoJE=T BraDBF=F KetDBF=T FulRan=T
         wScrn=  0.000000 ICntrl=       500 IOpCl=  0 I1Cent=   200000004 NGrid=           0
         NMat0=    1 NMatS0=      1 NMatT0=    0 NMatD0=    1 NMtDS0=    0 NMtDT0=    0
 Petite list used in FoFCou.
 Initial guess orbital symmetries:
 Alpha Orbitals:
       Occupied  (A1) (A1) (E) (E) (A1)
       Virtual   (A1) (E) (E) (E) (E) (A1) (A1) (E) (E) (A1) (E)
                 (E) (A2) (A1) (E) (E) (E) (E) (A1) (E) (E) (A1)
                 (E) (E) (A1) (E) (E) (A1) (E) (E) (A1)
 Beta  Orbitals:
       Occupied  (A1) (A1) (E) (E)
       Virtual   (A1) (A1) (E) (E) (E) (E) (A1) (A1) (E) (E) (A1)
                 (E) (E) (A2) (A1) (E) (E) (E) (E) (A1) (E) (E)
                 (A1) (E) (E) (A1) (E) (E) (A1) (E) (E) (A1)
 The electronic state of the initial guess is 2-A1.
 Initial guess <Sx>= 0.0000 <Sy>= 0.0000 <Sz>= 0.5000 <S**2>= 0.7500 S= 0.5000
 Keep R1 and R2 ints in memory in symmetry-blocked form, NReq=1091596.
 Requested convergence on RMS density matrix=1.00D-08 within 128 cycles.
 Requested convergence on MAX density matrix=1.00D-06.
 Requested convergence on             energy=1.00D-06.
 No special actions if energy rises.
 Integral accuracy reduced to 1.0D-05 until final iterations.
 Initial convergence to 1.0D-05 achieved.  Increase integral accuracy.
 SCF Done:  E(UB3LYP) =  -56.1851105567     A.U. after   11 cycles
            NFock= 11  Conv=0.52D-08     -V/T= 2.0009
 <Sx>= 0.0000 <Sy>= 0.0000 <Sz>= 0.5000 <S**2>= 0.7524 S= 0.5012
 <L.S>= 0.000000000000E+00
 Annihilation of the first spin contaminant:
 S**2 before annihilation     0.7524,   after     0.7500

 **********************************************************************

            Population analysis using the SCF density.

 **********************************************************************

 Orbital symmetries:
 Alpha Orbitals:
       Occupied  (A1) (A1) (E) (E) (A1)
       Virtual   (A1) (E) (E) (E) (E) (A1) (A1) (E) (E) (A1) (E)
                 (E) (A2) (A1) (E) (E) (E) (E) (A1) (E) (E) (A1)
                 (E) (E) (A1) (E) (E) (A1) (E) (E) (A1)
 Beta  Orbitals:
       Occupied  (A1) (A1) (E) (E)
       Virtual   (A1) (A1) (E) (E) (E) (E) (A1) (A1) (E) (E) (A1)
                 (E) (E) (A2) (A1) (E) (E) (E) (E) (A1) (E) (E)
                 (A1) (E) (E) (A1) (E) (E) (A1) (E) (E) (A1)
 The electronic state is 2-A1.
 Alpha  occ. eigenvalues --  -14.76549  -1.29249  -0.87992  -0.87992  -0.75560
 Alpha virt. eigenvalues --   -0.23279  -0.15725  -0.15725   0.02654   0.02654
 Alpha virt. eigenvalues --    0.13441   0.20333   0.37551   0.37551   0.52075
 Alpha virt. eigenvalues --    0.74303   0.74303   1.16964   1.20793   1.27837
 Alpha virt. eigenvalues --    1.27837   1.51367   1.51367   1.71279   2.01595
 Alpha virt. eigenvalues --    2.01595   2.10083   2.24614   2.24614   2.44403
 Alpha virt. eigenvalues --    2.64139   2.64139   3.39459   4.35336   4.35336
 Alpha virt. eigenvalues --   35.15431
  Beta  occ. eigenvalues --  -14.74307  -1.24110  -0.86169  -0.86169
  Beta virt. eigenvalues --   -0.52607  -0.22420  -0.14894  -0.14894   0.03308
  Beta virt. eigenvalues --    0.03308   0.14926   0.27457   0.38726   0.38726
  Beta virt. eigenvalues --    0.55102   0.76051   0.76051   1.16803   1.24815
  Beta virt. eigenvalues --    1.28318   1.28318   1.53613   1.53613   1.73307
  Beta virt. eigenvalues --    2.02194   2.02194   2.13446   2.28538   2.28538
  Beta virt. eigenvalues --    2.47892   2.66360   2.66360   3.49414   4.37504
  Beta virt. eigenvalues --    4.37504  35.17841
          Condensed to atoms (all electrons):
               1          2          3          4
     1  N    5.942600   0.354199   0.354199   0.354199
     2  H    0.354199   0.338462  -0.013863  -0.013863
     3  H    0.354199  -0.013863   0.338462  -0.013863
     4  H    0.354199  -0.013863  -0.013863   0.338462
          Atomic-Atomic Spin Densities.
               1          2          3          4
     1  N    1.074261  -0.004646  -0.004646  -0.004646
     2  H   -0.004646  -0.019643   0.002091   0.002091
     3  H   -0.004646   0.002091  -0.019643   0.002091
     4  H   -0.004646   0.002091   0.002091  -0.019643
 Mulliken charges and spin densities:
               1          2
     1  N   -0.005197   1.060324
     2  H    0.335066  -0.020108
     3  H    0.335066  -0.020108
     4  H    0.335066  -0.020108
 Sum of Mulliken charges =   1.00000   1.00000
 Mulliken charges and spin densities with hydrogens summed into heavy atoms:
               1          2
     1  N    1.000000   1.000000
 Electronic spatial extent (au):  <R**2>=             19.6518
 Charge=              1.0000 electrons
 Dipole moment (field-independent basis, Debye):
    X=             -0.0000    Y=              0.0000    Z=             -1.0151  Tot=              1.0151
 Quadrupole moment (field-independent basis, Debye-Ang):
   XX=             -3.5485   YY=             -3.5485   ZZ=             -5.4060
   XY=             -0.0000   XZ=              0.0000   YZ=             -0.0000
 Traceless Quadrupole moment (field-independent basis, Debye-Ang):
   XX=              0.6192   YY=              0.6192   ZZ=             -1.2383
   XY=             -0.0000   XZ=              0.0000   YZ=             -0.0000
 Octapole moment (field-independent basis, Debye-Ang**2):
  XXX=             -0.0000  YYY=              1.3978  ZZZ=             -0.5521  XYY=              0.0000
  XXY=             -1.3978  XXZ=             -0.9372  XZZ=              0.0000  YZZ=             -0.0000
  YYZ=             -0.9372  XYZ=              0.0000
 Hexadecapole moment (field-independent basis, Debye-Ang**3):
 XXXX=             -5.2595 YYYY=             -5.2595 ZZZZ=             -4.6852 XXXY=              0.0000
 XXXZ=              0.0000 YYYX=             -0.0000 YYYZ=             -0.4284 ZZZX=             -0.0000
 ZZZY=             -0.0000 XXYY=             -1.7532 XXZZ=             -1.8337 YYZZ=             -1.8337
 XXYZ=              0.4284 YYXZ=             -0.0000 ZZXY=              0.0000
 N-N= 1.208488207060D+01 E-N=-1.518957019128D+02  KE= 5.613603935422D+01
 Symmetry A'   KE= 5.308917831499D+01
 Symmetry A"   KE= 3.046861039221D+00
 Symmetry A'   SP= 1.000000000000D+00
 Symmetry A"   SP=-1.217608591129D-15
                          Isotropic Fermi Contact Couplings
        Atom                 a.u.       MegaHertz       Gauss      10(-4) cm-1
     1  N(14)              0.43066     139.14860      49.65168      46.41498
     2  H(1)              -0.00539     -24.09191      -8.59659      -8.03620
     3  H(1)              -0.00539     -24.09191      -8.59659      -8.03620
     4  H(1)              -0.00539     -24.09191      -8.59659      -8.03620
 --------------------------------------------------------
       Center         ----  Spin Dipole Couplings  ----
                      3XX-RR        3YY-RR        3ZZ-RR
 --------------------------------------------------------
     1   Atom       -1.114770     -1.114770      2.229539
     2   Atom       -0.098708      0.116378     -0.017671
     3   Atom        0.062607     -0.044936     -0.017671
     4   Atom        0.062607     -0.044936     -0.017671
 --------------------------------------------------------
                        XY            XZ            YZ
 --------------------------------------------------------
     1   Atom        0.000000      0.000000      0.000000
     2   Atom        0.000000     -0.000000     -0.043897
     3   Atom        0.093135      0.038016      0.021949
     4   Atom       -0.093135     -0.038016      0.021949
 --------------------------------------------------------


 ---------------------------------------------------------------------------------
              Anisotropic Spin Dipole Couplings in Principal Axis System
 ---------------------------------------------------------------------------------

       Atom             a.u.   MegaHertz   Gauss  10(-4) cm-1        Axes

              Baa    -1.1148   -42.994   -15.341   -14.341 -0.0560  0.9984 -0.0000
     1 N(14)  Bbb    -1.1148   -42.994   -15.341   -14.341  0.9984  0.0560 -0.0000
              Bcc     2.2295    85.988    30.683    28.683  0.0000  0.0000  1.0000
 
              Baa    -0.0987   -52.666   -18.792   -17.567  1.0000 -0.0000  0.0000
     2 H(1)   Bbb    -0.0308   -16.416    -5.857    -5.476  0.0000  0.2859  0.9583
              Bcc     0.1295    69.081    24.650    23.043  0.0000  0.9583 -0.2859
 
              Baa    -0.0987   -52.666   -18.792   -17.567 -0.5000  0.8660  0.0000
     3 H(1)   Bbb    -0.0308   -16.416    -5.857    -5.476 -0.2476 -0.1429  0.9583
              Bcc     0.1295    69.081    24.650    23.043  0.8299  0.4791  0.2859
 
              Baa    -0.0987   -52.666   -18.792   -17.567  0.5000  0.8660  0.0000
     4 H(1)   Bbb    -0.0308   -16.416    -5.857    -5.476  0.2476 -0.1429  0.9583
              Bcc     0.1295    69.081    24.650    23.043  0.8299 -0.4791 -0.2859
 

 ---------------------------------------------------------------------------------

 Calling FoFJK, ICntrl=      2127 FMM=F ISym2X=1 I1Cent= 0 IOpClX= 1 NMat=1 NMatS=1 NMatT=0.
 ***** Axes restored to original set *****
 -------------------------------------------------------------------
 Center     Atomic                   Forces (Hartrees/Bohr)
 Number     Number              X              Y              Z
 -------------------------------------------------------------------
      1        7           0.043644669   -0.000000533    0.000000000
      2        1          -0.014548665   -0.036232005   -0.000000000
      3        1          -0.014548002    0.018116269    0.031377990
      4        1          -0.014548002    0.018116269   -0.031377990
 -------------------------------------------------------------------
 Cartesian Forces:  Max     0.043644669 RMS     0.023234534

 GradGradGradGradGradGradGradGradGradGradGradGradGradGradGradGradGradGrad
 Berny optimization.
 FormGI is forming the generalized inverse of G from B-inverse, IUseBI=4.
 Internal  Forces:  Max     0.036736936 RMS     0.027564774
 Search for a local minimum.
 Step number   1 out of a maximum of   20
 All quantities printed in internal units (Hartrees-Bohrs-Radians)
 Mixed Optimization -- RFO/linear search
 Second derivative matrix not updated -- first step.
 The second derivative matrix:
                          R1        R2        R3        A1        A2
           R1           0.47688
           R2           0.00000   0.47688
           R3           0.00000   0.00000   0.47688
           A1           0.00000   0.00000   0.00000   0.16000
           A2           0.00000   0.00000   0.00000   0.00000   0.16000
           A3           0.00000   0.00000   0.00000   0.00000   0.00000
           D1           0.00000   0.00000   0.00000   0.00000   0.00000
                          A3        D1
           A3           0.16000
           D1           0.00000   0.01028
 ITU=  0
     Eigenvalues ---    0.05635   0.16000   0.16000   0.47688   0.47688
     Eigenvalues ---    0.47688
 RFO step:  Lambda=-3.14186501D-02 EMin= 5.63503368D-02
 Linear search not attempted -- first point.
 Maximum step size (   0.300) exceeded in Quadratic search.
    -- Step size scaled by   0.900
 Iteration  1 RMS(Cart)=  0.10108693 RMS(Int)=  0.06046049
 Iteration  2 RMS(Cart)=  0.02805301 RMS(Int)=  0.02738580
 Iteration  3 RMS(Cart)=  0.00198478 RMS(Int)=  0.02728117
 Iteration  4 RMS(Cart)=  0.00007166 RMS(Int)=  0.02728098
 Iteration  5 RMS(Cart)=  0.00000357 RMS(Int)=  0.02728098
 Iteration  6 RMS(Cart)=  0.00000018 RMS(Int)=  0.02728098
 ClnCor:  largest displacement from symmetrization is 2.77D-02 for atom     4.
 Variable       Old X    -DE/DX   Delta X   Delta X   Delta X     New X
                                 (Linear)    (Quad)   (Total)
    R1        1.88973   0.02931   0.00000   0.05188   0.04340   1.93312
    R2        1.88973   0.02931   0.00000   0.05188   0.04340   1.93312
    R3        1.88973   0.02931   0.00000   0.05188   0.04340   1.93312
    A1        1.91063   0.00375   0.00000   0.12861   0.12152   2.03215
    A2        1.91063   0.02625   0.00000   0.17884   0.12152   2.03215
    A3        1.91063   0.02625   0.00000   0.17884   0.12152   2.03215
    D1       -2.09440  -0.03674   0.00000  -0.37655  -0.40757  -2.50197
         Item               Value     Threshold  Converged?
 Maximum Force            0.036737     0.000450     NO 
 RMS     Force            0.027565     0.000300     NO 
 Maximum Displacement     0.197137     0.001800     NO 
 RMS     Displacement     0.114054     0.001200     NO 
 Predicted change in Energy=-1.987812D-02
 GradGradGradGradGradGradGradGradGradGradGradGradGradGradGradGradGradGrad

                          Input orientation:                          
 ---------------------------------------------------------------------
 Center     Atomic      Atomic             Coordinates (Angstroms)
 Number     Number       Type             X           Y           Z
 ---------------------------------------------------------------------
      1          7           0       -1.781394   -1.400001    0.000000
      2          1           0       -1.585808   -2.404095   -0.000000
      3          1           0       -1.585790   -0.897958    0.869569
      4          1           0       -1.585790   -0.897958   -0.869569
 ---------------------------------------------------------------------
                    Distance matrix (angstroms):
                    1          2          3          4
     1  N    0.000000
     2  H    1.022965   0.000000
     3  H    1.022965   1.739137   0.000000
     4  H    1.022965   1.739137   1.739137   0.000000
 Stoichiometry    H3N(1+,2)
 Framework group  C3V[C3(N),3SGV(H)]
 Deg. of freedom     2
 Full point group                 C3V     NOp   6
 Largest Abelian subgroup         CS      NOp   2
 Largest concise Abelian subgroup CS      NOp   2
                         Standard orientation:                         
 ---------------------------------------------------------------------
 Center     Atomic      Atomic             Coordinates (Angstroms)
 Number     Number       Type             X           Y           Z
 ---------------------------------------------------------------------
      1          7           0       -0.000000   -0.000000    0.058679
      2          1           0        0.000000    1.004091   -0.136919
      3          1           0       -0.869569   -0.502046   -0.136919
      4          1           0        0.869569   -0.502046   -0.136919
 ---------------------------------------------------------------------
 Rotational constants (GHZ):         312.1037411         312.1037411         165.7923007
 Standard basis: 6-311G(d,p) (5D, 7F)
 There are    25 symmetry adapted cartesian basis functions of A'  symmetry.
 There are    12 symmetry adapted cartesian basis functions of A"  symmetry.
 There are    24 symmetry adapted basis functions of A'  symmetry.
 There are    12 symmetry adapted basis functions of A"  symmetry.
    36 basis functions,    56 primitive gaussians,    37 cartesian basis functions
     5 alpha electrons        4 beta electrons
       nuclear repulsion energy        11.7760709253 Hartrees.
 NAtoms=    4 NActive=    4 NUniq=    2 SFac= 4.00D+00 NAtFMM=   60 NAOKFM=F Big=F
 Integral buffers will be    131072 words long.
 Raffenetti 2 integral format.
 Two-electron integral symmetry is turned on.
 One-electron integrals computed using PRISM.
 NBasis=    36 RedAO= T EigKep=  2.00D-02  NBF=    24    12
 NBsUse=    36 1.00D-06 EigRej= -1.00D+00 NBFU=    24    12
 Initial guess from the checkpoint file:  "6-311G_dp.chk"
 B after Tr=    -0.000000   -0.000000   -0.000000
         Rot=    1.000000   -0.000000   -0.000000   -0.000000 Ang=   0.00 deg.
 Initial guess orbital symmetries:
 Alpha Orbitals:
       Occupied  (A1) (A1) (E) (E) (A1)
       Virtual   (A1) (E) (E) (E) (E) (A1) (A1) (E) (E) (A1) (E)
                 (E) (A2) (A1) (E) (E) (E) (E) (A1) (E) (E) (A1)
                 (E) (E) (A1) (E) (E) (A1) (E) (E) (A1)
 Beta  Orbitals:
       Occupied  (A1) (A1) (E) (E)
       Virtual   (A1) (A1) (E) (E) (E) (E) (A1) (A1) (E) (E) (A1)
                 (E) (E) (A2) (A1) (E) (E) (E) (E) (A1) (E) (E)
                 (A1) (E) (E) (A1) (E) (E) (A1) (E) (E) (A1)
 Initial guess <Sx>= 0.0000 <Sy>= 0.0000 <Sz>= 0.5000 <S**2>= 0.7527 S= 0.5013
 ExpMin= 1.03D-01 ExpMax= 6.29D+03 ExpMxC= 9.49D+02 IAcc=2 IRadAn=         4 AccDes= 0.00D+00
 Harris functional with IExCor=  402 and IRadAn=       4 diagonalized for initial guess.
 HarFok:  IExCor=  402 AccDes= 0.00D+00 IRadAn=         4 IDoV= 1 UseB2=F ITyADJ=14
 ICtDFT=  3500011 ScaDFX=  1.000000  1.000000  1.000000  1.000000
 FoFCou: FMM=F IPFlag=           0 FMFlag=      100000 FMFlg1=           0
         NFxFlg=           0 DoJE=T BraDBF=F KetDBF=T FulRan=T
         wScrn=  0.000000 ICntrl=       500 IOpCl=  0 I1Cent=   200000004 NGrid=           0
         NMat0=    1 NMatS0=      1 NMatT0=    0 NMatD0=    1 NMtDS0=    0 NMtDT0=    0
 Petite list used in FoFCou.
 Keep R1 and R2 ints in memory in symmetry-blocked form, NReq=1091596.
 Requested convergence on RMS density matrix=1.00D-08 within 128 cycles.
 Requested convergence on MAX density matrix=1.00D-06.
 Requested convergence on             energy=1.00D-06.
 No special actions if energy rises.
 Integral accuracy reduced to 1.0D-05 until final iterations.
 Initial convergence to 1.0D-05 achieved.  Increase integral accuracy.
 SCF Done:  E(UB3LYP) =  -56.2021810896     A.U. after   12 cycles
            NFock= 12  Conv=0.12D-08     -V/T= 2.0032
 <Sx>= 0.0000 <Sy>= 0.0000 <Sz>= 0.5000 <S**2>= 0.7531 S= 0.5015
 <L.S>= 0.000000000000E+00
 Annihilation of the first spin contaminant:
 S**2 before annihilation     0.7531,   after     0.7500
 Calling FoFJK, ICntrl=      2127 FMM=F ISym2X=1 I1Cent= 0 IOpClX= 1 NMat=1 NMatS=1 NMatT=0.
 ***** Axes restored to original set *****
 -------------------------------------------------------------------
 Center     Atomic                   Forces (Hartrees/Bohr)
 Number     Number              X              Y              Z
 -------------------------------------------------------------------
      1        7           0.028708181   -0.000000350    0.000000000
      2        1          -0.009569480   -0.007038520   -0.000000000
      3        1          -0.009569351    0.003519435    0.006095639
      4        1          -0.009569351    0.003519435   -0.006095639
 -------------------------------------------------------------------
 Cartesian Forces:  Max     0.028708181 RMS     0.010196024

 GradGradGradGradGradGradGradGradGradGradGradGradGradGradGradGradGradGrad
 Berny optimization.
 Using GEDIIS/GDIIS optimizer.
 FormGI is forming the generalized inverse of G from B-inverse, IUseBI=4.
 Internal  Forces:  Max     0.017862491 RMS     0.008224951
 Search for a local minimum.
 Step number   2 out of a maximum of   20
 All quantities printed in internal units (Hartrees-Bohrs-Radians)
 Mixed Optimization -- RFO/linear search
 Update second derivatives using D2CorX and points    1    2
 DE= -1.71D-02 DEPred=-1.99D-02 R= 8.59D-01
 TightC=F SS=  1.41D+00  RLast= 4.65D-01 DXNew= 5.0454D-01 1.3945D+00
 Trust test= 8.59D-01 RLast= 4.65D-01 DXMaxT set to 5.05D-01
 The second derivative matrix:
                          R1        R2        R3        A1        A2
           R1           0.47580
           R2          -0.00108   0.47580
           R3          -0.00108  -0.00108   0.47580
           A1          -0.02881  -0.02881  -0.02881   0.12817
           A2          -0.00508  -0.00508  -0.00508  -0.02777   0.15187
           A3          -0.00508  -0.00508  -0.00508  -0.02777  -0.00813
           D1          -0.02064  -0.02064  -0.02064   0.00226  -0.01623
                          A3        D1
           A3           0.15187
           D1          -0.01623   0.03071
 ITU=  1  0
 Use linear search instead of GDIIS.
     Eigenvalues ---    0.04440   0.16000   0.17369   0.47688   0.47688
     Eigenvalues ---    0.47753
 RFO step:  Lambda=-2.37289711D-03 EMin= 4.43967045D-02
 Quartic linear search produced a step of  0.79612.
 Iteration  1 RMS(Cart)=  0.05308475 RMS(Int)=  0.09947617
 Iteration  2 RMS(Cart)=  0.04290274 RMS(Int)=  0.04286954
 Iteration  3 RMS(Cart)=  0.00317747 RMS(Int)=  0.04270639
 Iteration  4 RMS(Cart)=  0.00005837 RMS(Int)=  0.04270625
 Iteration  5 RMS(Cart)=  0.00000358 RMS(Int)=  0.04270625
 Iteration  6 RMS(Cart)=  0.00000022 RMS(Int)=  0.04270625
 ClnCor:  largest displacement from symmetrization is 2.43D-02 for atom     4.
 Variable       Old X    -DE/DX   Delta X   Delta X   Delta X     New X
                                 (Linear)    (Quad)   (Total)
    R1        1.93312   0.00508   0.03455  -0.03049   0.01176   1.94489
    R2        1.93312   0.00508   0.03455  -0.03049   0.01176   1.94489
    R3        1.93312   0.00508   0.03455  -0.03049   0.01176   1.94489
    A1        2.03215  -0.00040   0.09674   0.06548   0.05841   2.09056
    A2        2.03215   0.00620   0.09674   0.00706   0.05841   2.09056
    A3        2.03215   0.00620   0.09674   0.00706   0.05841   2.09056
    D1       -2.50197  -0.01786  -0.32448  -0.14372  -0.47689  -2.97886
         Item               Value     Threshold  Converged?
 Maximum Force            0.017862     0.000450     NO 
 RMS     Force            0.008225     0.000300     NO 
 Maximum Displacement     0.207655     0.001800     NO 
 RMS     Displacement     0.095722     0.001200     NO 
 Predicted change in Energy=-4.180130D-03
 GradGradGradGradGradGradGradGradGradGradGradGradGradGradGradGradGradGrad

                          Input orientation:                          
 ---------------------------------------------------------------------
 Center     Atomic      Atomic             Coordinates (Angstroms)
 Number     Number       Type             X           Y           Z
 ---------------------------------------------------------------------
      1          7           0       -1.671508   -1.400003    0.000000
      2          1           0       -1.623064   -2.428051   -0.000000
      3          1           0       -1.623045   -0.885979    0.890316
      4          1           0       -1.623045   -0.885979   -0.890316
 ---------------------------------------------------------------------
                    Distance matrix (angstroms):
                    1          2          3          4
     1  N    0.000000
     2  H    1.029189   0.000000
     3  H    1.029189   1.780632   0.000000
     4  H    1.029189   1.780632   1.780632   0.000000
 Stoichiometry    H3N(1+,2)
 Framework group  C3V[C3(N),3SGV(H)]
 Deg. of freedom     2
 Full point group                 C3V     NOp   6
 Largest Abelian subgroup         CS      NOp   2
 Largest concise Abelian subgroup CS      NOp   2
                         Standard orientation:                         
 ---------------------------------------------------------------------
 Center     Atomic      Atomic             Coordinates (Angstroms)
 Number     Number       Type             X           Y           Z
 ---------------------------------------------------------------------
      1          7           0       -0.000000   -0.000000    0.014537
      2          1           0        0.000000    1.028048   -0.033919
      3          1           0       -0.890316   -0.514024   -0.033919
      4          1           0        0.890316   -0.514024   -0.033919
 ---------------------------------------------------------------------
 Rotational constants (GHZ):         315.1590291         315.1590291         158.1553462
 Standard basis: 6-311G(d,p) (5D, 7F)
 There are    25 symmetry adapted cartesian basis functions of A'  symmetry.
 There are    12 symmetry adapted cartesian basis functions of A"  symmetry.
 There are    24 symmetry adapted basis functions of A'  symmetry.
 There are    12 symmetry adapted basis functions of A"  symmetry.
    36 basis functions,    56 primitive gaussians,    37 cartesian basis functions
     5 alpha electrons        4 beta electrons
       nuclear repulsion energy        11.6891018160 Hartrees.
 NAtoms=    4 NActive=    4 NUniq=    2 SFac= 4.00D+00 NAtFMM=   60 NAOKFM=F Big=F
 Integral buffers will be    131072 words long.
 Raffenetti 2 integral format.
 Two-electron integral symmetry is turned on.
 One-electron integrals computed using PRISM.
 NBasis=    36 RedAO= T EigKep=  2.35D-02  NBF=    24    12
 NBsUse=    36 1.00D-06 EigRej= -1.00D+00 NBFU=    24    12
 Initial guess from the checkpoint file:  "6-311G_dp.chk"
 B after Tr=    -0.000000    0.000000    0.000000
         Rot=    1.000000   -0.000000    0.000000   -0.000000 Ang=   0.00 deg.
 Initial guess orbital symmetries:
 Alpha Orbitals:
       Occupied  (A1) (A1) (E) (E) (A1)
       Virtual   (A1) (E) (E) (E) (E) (A1) (A1) (E) (E) (A1) (E)
                 (E) (A2) (E) (E) (A1) (A1) (E) (E) (E) (E) (A1)
                 (E) (E) (A1) (E) (E) (A1) (E) (E) (A1)
 Beta  Orbitals:
       Occupied  (A1) (A1) (E) (E)
       Virtual   (A1) (A1) (E) (E) (E) (E) (A1) (A1) (E) (E) (A1)
                 (E) (E) (A2) (E) (E) (A1) (A1) (E) (E) (E) (E)
                 (A1) (E) (E) (A1) (E) (E) (A1) (E) (E) (A1)
 Initial guess <Sx>= 0.0000 <Sy>= 0.0000 <Sz>= 0.5000 <S**2>= 0.7532 S= 0.5016
 ExpMin= 1.03D-01 ExpMax= 6.29D+03 ExpMxC= 9.49D+02 IAcc=2 IRadAn=         4 AccDes= 0.00D+00
 Harris functional with IExCor=  402 and IRadAn=       4 diagonalized for initial guess.
 HarFok:  IExCor=  402 AccDes= 0.00D+00 IRadAn=         4 IDoV= 1 UseB2=F ITyADJ=14
 ICtDFT=  3500011 ScaDFX=  1.000000  1.000000  1.000000  1.000000
 FoFCou: FMM=F IPFlag=           0 FMFlag=      100000 FMFlg1=           0
         NFxFlg=           0 DoJE=T BraDBF=F KetDBF=T FulRan=T
         wScrn=  0.000000 ICntrl=       500 IOpCl=  0 I1Cent=   200000004 NGrid=           0
         NMat0=    1 NMatS0=      1 NMatT0=    0 NMatD0=    1 NMtDS0=    0 NMtDT0=    0
 Petite list used in FoFCou.
 Keep R1 and R2 ints in memory in symmetry-blocked form, NReq=1091596.
 Requested convergence on RMS density matrix=1.00D-08 within 128 cycles.
 Requested convergence on MAX density matrix=1.00D-06.
 Requested convergence on             energy=1.00D-06.
 No special actions if energy rises.
 Integral accuracy reduced to 1.0D-05 until final iterations.
 Initial convergence to 1.0D-05 achieved.  Increase integral accuracy.
 SCF Done:  E(UB3LYP) =  -56.2074147945     A.U. after   11 cycles
            NFock= 11  Conv=0.66D-08     -V/T= 2.0039
 <Sx>= 0.0000 <Sy>= 0.0000 <Sz>= 0.5000 <S**2>= 0.7535 S= 0.5018
 <L.S>= 0.000000000000E+00
 Annihilation of the first spin contaminant:
 S**2 before annihilation     0.7535,   after     0.7500
 Calling FoFJK, ICntrl=      2127 FMM=F ISym2X=1 I1Cent= 0 IOpClX= 1 NMat=1 NMatS=1 NMatT=0.
 ***** Axes restored to original set *****
 -------------------------------------------------------------------
 Center     Atomic                   Forces (Hartrees/Bohr)
 Number     Number              X              Y              Z
 -------------------------------------------------------------------
      1        7           0.006762228   -0.000000083    0.000000000
      2        1          -0.002254057    0.001544569    0.000000000
      3        1          -0.002254086   -0.000772243   -0.001337612
      4        1          -0.002254086   -0.000772243    0.001337612
 -------------------------------------------------------------------
 Cartesian Forces:  Max     0.006762228 RMS     0.002382700

 GradGradGradGradGradGradGradGradGradGradGradGradGradGradGradGradGradGrad
 Berny optimization.
 Using GEDIIS/GDIIS optimizer.
 FormGI is forming the generalized inverse of G from B-inverse, IUseBI=4.
 Internal  Forces:  Max     0.003673609 RMS     0.001765688
 Search for a local minimum.
 Step number   3 out of a maximum of   20
 All quantities printed in internal units (Hartrees-Bohrs-Radians)
 Mixed Optimization -- RFO/linear search
 Update second derivatives using D2CorX and points    2    3
 DE= -5.23D-03 DEPred=-4.18D-03 R= 1.25D+00
 TightC=F SS=  1.41D+00  RLast= 4.88D-01 DXNew= 8.4853D-01 1.4638D+00
 Trust test= 1.25D+00 RLast= 4.88D-01 DXMaxT set to 8.49D-01
 The second derivative matrix:
                          R1        R2        R3        A1        A2
           R1           0.46516
           R2          -0.01172   0.46516
           R3          -0.01172  -0.01172   0.46516
           A1          -0.03182  -0.03182  -0.03182   0.12774
           A2          -0.01794  -0.01794  -0.01794  -0.03099   0.13674
           A3          -0.01794  -0.01794  -0.01794  -0.03099  -0.02326
           D1          -0.01151  -0.01151  -0.01151   0.00643  -0.00362
                          A3        D1
           A3           0.13674
           D1          -0.00362   0.02880
 ITU=  1  1  0
 Use linear search instead of GDIIS.
     Eigenvalues ---    0.02821   0.16000   0.16352   0.44357   0.47688
     Eigenvalues ---    0.47688
 RFO step:  Lambda=-1.26644335D-04 EMin= 2.82069142D-02
 Quartic linear search produced a step of  0.32859.
 Iteration  1 RMS(Cart)=  0.03420396 RMS(Int)=  0.01107894
 Iteration  2 RMS(Cart)=  0.00188159 RMS(Int)=  0.01088924
 Iteration  3 RMS(Cart)=  0.00000697 RMS(Int)=  0.01088923
 Iteration  4 RMS(Cart)=  0.00000010 RMS(Int)=  0.01088923
 ClnCor:  largest displacement from symmetrization is 4.20D-03 for atom     4.
 Variable       Old X    -DE/DX   Delta X   Delta X   Delta X     New X
                                 (Linear)    (Quad)   (Total)
    R1        1.94489  -0.00165   0.00386  -0.00894  -0.00368   1.94121
    R2        1.94489  -0.00165   0.00386  -0.00894  -0.00368   1.94121
    R3        1.94489  -0.00165   0.00386  -0.00894  -0.00368   1.94121
    A1        2.09056  -0.00006   0.01919   0.00789   0.00378   2.09434
    A2        2.09056   0.00029   0.01919  -0.00212   0.00378   2.09434
    A3        2.09056   0.00029   0.01919  -0.00212   0.00378   2.09434
    D1       -2.97886  -0.00367  -0.15670  -0.02635  -0.18290   3.12143
         Item               Value     Threshold  Converged?
 Maximum Force            0.003674     0.000450     NO 
 RMS     Force            0.001766     0.000300     NO 
 Maximum Displacement     0.077119     0.001800     NO 
 RMS     Displacement     0.033687     0.001200     NO 
 Predicted change in Energy=-2.195619D-04
 GradGradGradGradGradGradGradGradGradGradGradGradGradGradGradGradGradGrad

                          Input orientation:                          
 ---------------------------------------------------------------------
 Center     Atomic      Atomic             Coordinates (Angstroms)
 Number     Number       Type             X           Y           Z
 ---------------------------------------------------------------------
      1          7           0       -1.630698   -1.400003    0.000000
      2          1           0       -1.636690   -2.427228   -0.000000
      3          1           0       -1.636671   -0.886391    0.889603
      4          1           0       -1.636671   -0.886391   -0.889603
 ---------------------------------------------------------------------
                    Distance matrix (angstroms):
                    1          2          3          4
     1  N    0.000000
     2  H    1.027242   0.000000
     3  H    1.027242   1.779206   0.000000
     4  H    1.027242   1.779206   1.779206   0.000000
 Stoichiometry    H3N(1+,2)
 Framework group  C3V[C3(N),3SGV(H)]
 Deg. of freedom     2
 Full point group                 C3V     NOp   6
 Largest Abelian subgroup         CS      NOp   2
 Largest concise Abelian subgroup CS      NOp   2
                         Standard orientation:                         
 ---------------------------------------------------------------------
 Center     Atomic      Atomic             Coordinates (Angstroms)
 Number     Number       Type             X           Y           Z
 ---------------------------------------------------------------------
      1          7           0        0.000000    0.000000   -0.001794
      2          1           0       -0.000000    1.027225    0.004186
      3          1           0       -0.889603   -0.513612    0.004186
      4          1           0        0.889603   -0.513612    0.004186
 ---------------------------------------------------------------------
 Rotational constants (GHZ):         316.8003266         316.8003266         158.4089917
 Standard basis: 6-311G(d,p) (5D, 7F)
 There are    25 symmetry adapted cartesian basis functions of A'  symmetry.
 There are    12 symmetry adapted cartesian basis functions of A"  symmetry.
 There are    24 symmetry adapted basis functions of A'  symmetry.
 There are    12 symmetry adapted basis functions of A"  symmetry.
    36 basis functions,    56 primitive gaussians,    37 cartesian basis functions
     5 alpha electrons        4 beta electrons
       nuclear repulsion energy        11.7102850798 Hartrees.
 NAtoms=    4 NActive=    4 NUniq=    2 SFac= 4.00D+00 NAtFMM=   60 NAOKFM=F Big=F
 Integral buffers will be    131072 words long.
 Raffenetti 2 integral format.
 Two-electron integral symmetry is turned on.
 One-electron integrals computed using PRISM.
 NBasis=    36 RedAO= T EigKep=  2.35D-02  NBF=    24    12
 NBsUse=    36 1.00D-06 EigRej= -1.00D+00 NBFU=    24    12
 Initial guess from the checkpoint file:  "6-311G_dp.chk"
 B after Tr=     0.000000    0.000000   -0.000000
         Rot=    1.000000   -0.000000   -0.000000   -0.000000 Ang=   0.00 deg.
 Initial guess orbital symmetries:
 Alpha Orbitals:
       Occupied  (?A) (?A) (?B) (?B) (?A)
       Virtual   (?A) (?B) (?B) (?B) (?B) (?A) (?A) (?B) (?B) (?A)
                 (?B) (?B) (?A) (?B) (?B) (?A) (?A) (?B) (?B) (?A)
                 (?B) (?B) (?B) (?B) (?A) (?B) (?B) (?A) (?B) (?B)
                 (?A)
 Beta  Orbitals:
       Occupied  (?A) (?A) (?B) (?B)
       Virtual   (?A) (?A) (?B) (?B) (?B) (?B) (?A) (?A) (?B) (?B)
                 (?A) (?B) (?B) (?A) (?B) (?B) (?A) (?A) (?B) (?B)
                 (?A) (?B) (?B) (?B) (?B) (?A) (?B) (?B) (?A) (?B)
                 (?B) (?A)
 Initial guess <Sx>= 0.0000 <Sy>= 0.0000 <Sz>= 0.5000 <S**2>= 0.7535 S= 0.5017
 ExpMin= 1.03D-01 ExpMax= 6.29D+03 ExpMxC= 9.49D+02 IAcc=2 IRadAn=         4 AccDes= 0.00D+00
 Harris functional with IExCor=  402 and IRadAn=       4 diagonalized for initial guess.
 HarFok:  IExCor=  402 AccDes= 0.00D+00 IRadAn=         4 IDoV= 1 UseB2=F ITyADJ=14
 ICtDFT=  3500011 ScaDFX=  1.000000  1.000000  1.000000  1.000000
 FoFCou: FMM=F IPFlag=           0 FMFlag=      100000 FMFlg1=           0
         NFxFlg=           0 DoJE=T BraDBF=F KetDBF=T FulRan=T
         wScrn=  0.000000 ICntrl=       500 IOpCl=  0 I1Cent=   200000004 NGrid=           0
         NMat0=    1 NMatS0=      1 NMatT0=    0 NMatD0=    1 NMtDS0=    0 NMtDT0=    0
 Petite list used in FoFCou.
 Keep R1 and R2 ints in memory in symmetry-blocked form, NReq=1091596.
 Requested convergence on RMS density matrix=1.00D-08 within 128 cycles.
 Requested convergence on MAX density matrix=1.00D-06.
 Requested convergence on             energy=1.00D-06.
 No special actions if energy rises.
 Integral accuracy reduced to 1.0D-05 until final iterations.
 Initial convergence to 1.0D-05 achieved.  Increase integral accuracy.
 SCF Done:  E(UB3LYP) =  -56.2077185809     A.U. after    9 cycles
            NFock=  9  Conv=0.29D-08     -V/T= 2.0038
 <Sx>= 0.0000 <Sy>= 0.0000 <Sz>= 0.5000 <S**2>= 0.7535 S= 0.5018
 <L.S>= 0.000000000000E+00
 Annihilation of the first spin contaminant:
 S**2 before annihilation     0.7535,   after     0.7500
 Calling FoFJK, ICntrl=      2127 FMM=F ISym2X=1 I1Cent= 0 IOpClX= 1 NMat=1 NMatS=1 NMatT=0.
 ***** Axes restored to original set *****
 -------------------------------------------------------------------
 Center     Atomic                   Forces (Hartrees/Bohr)
 Number     Number              X              Y              Z
 -------------------------------------------------------------------
      1        7          -0.000805993    0.000000010   -0.000000000
      2        1           0.000268667    0.000199862    0.000000000
      3        1           0.000268663   -0.000099936   -0.000173088
      4        1           0.000268663   -0.000099936    0.000173088
 -------------------------------------------------------------------
 Cartesian Forces:  Max     0.000805993 RMS     0.000286648

 GradGradGradGradGradGradGradGradGradGradGradGradGradGradGradGradGradGrad
 Berny optimization.
 Using GEDIIS/GDIIS optimizer.
 FormGI is forming the generalized inverse of G from B-inverse, IUseBI=4.
 Internal  Forces:  Max     0.000449705 RMS     0.000215138
 Search for a local minimum.
 Step number   4 out of a maximum of   20
 All quantities printed in internal units (Hartrees-Bohrs-Radians)
 Mixed Optimization -- En-DIIS/RFO-DIIS
 Update second derivatives using D2CorX and points    3    4
 DE= -3.04D-04 DEPred=-2.20D-04 R= 1.38D+00
 TightC=F SS=  1.41D+00  RLast= 1.83D-01 DXNew= 1.4270D+00 5.4938D-01
 Trust test= 1.38D+00 RLast= 1.83D-01 DXMaxT set to 8.49D-01
 The second derivative matrix:
                          R1        R2        R3        A1        A2
           R1           0.46782
           R2          -0.00906   0.46782
           R3          -0.00906  -0.00906   0.46782
           A1          -0.03159  -0.03159  -0.03159   0.12739
           A2          -0.01875  -0.01875  -0.01875  -0.03029   0.13539
           A3          -0.01875  -0.01875  -0.01875  -0.03029  -0.02461
           D1          -0.00256  -0.00256  -0.00256   0.00358   0.00123
                          A3        D1
           A3           0.13539
           D1           0.00123   0.02282
 ITU=  1  1  1  0
 Use linear search instead of GDIIS.
     Eigenvalues ---    0.02282   0.16000   0.16112   0.45090   0.47688
     Eigenvalues ---    0.47688
 RFO step:  Lambda=-8.67400630D-07 EMin= 2.28184664D-02
 Quartic linear search produced a step of -0.10526.
 Iteration  1 RMS(Cart)=  0.00367230 RMS(Int)=  0.00029664
 Iteration  2 RMS(Cart)=  0.00002125 RMS(Int)=  0.00029587
 Iteration  3 RMS(Cart)=  0.00000000 RMS(Int)=  0.00029587
 ClnCor:  largest displacement from symmetrization is 1.89D-04 for atom     4.
 Variable       Old X    -DE/DX   Delta X   Delta X   Delta X     New X
                                 (Linear)    (Quad)   (Total)
    R1        1.94121  -0.00020   0.00039  -0.00079  -0.00047   1.94074
    R2        1.94121  -0.00020   0.00039  -0.00079  -0.00047   1.94074
    R3        1.94121  -0.00020   0.00039  -0.00079  -0.00047   1.94074
    A1        2.09434  -0.00000  -0.00040  -0.00030   0.00006   2.09440
    A2        2.09434   0.00000  -0.00040   0.00015   0.00006   2.09440
    A3        2.09434   0.00000  -0.00040   0.00015   0.00006   2.09440
    D1        3.12143   0.00045   0.01925   0.00073   0.01998   3.14141
         Item               Value     Threshold  Converged?
 Maximum Force            0.000450     0.000450     YES
 RMS     Force            0.000215     0.000300     YES
 Maximum Displacement     0.008397     0.001800     NO 
 RMS     Displacement     0.003676     0.001200     NO 
 Predicted change in Energy=-4.480447D-06
 GradGradGradGradGradGradGradGradGradGradGradGradGradGradGradGradGradGrad

                          Input orientation:                          
 ---------------------------------------------------------------------
 Center     Atomic      Atomic             Coordinates (Angstroms)
 Number     Number       Type             X           Y           Z
 ---------------------------------------------------------------------
      1          7           0       -1.635142   -1.400003    0.000000
      2          1           0       -1.635209   -2.426999   -0.000000
      3          1           0       -1.635190   -0.886505    0.889404
      4          1           0       -1.635190   -0.886505   -0.889404
 ---------------------------------------------------------------------
                    Distance matrix (angstroms):
                    1          2          3          4
     1  N    0.000000
     2  H    1.026996   0.000000
     3  H    1.026996   1.778809   0.000000
     4  H    1.026996   1.778809   1.778809   0.000000
 Stoichiometry    H3N(1+,2)
 Framework group  C3V[C3(N),3SGV(H)]
 Deg. of freedom     2
 Full point group                 C3V     NOp   6
 Largest Abelian subgroup         CS      NOp   2
 Largest concise Abelian subgroup CS      NOp   2
                         Standard orientation:                         
 ---------------------------------------------------------------------
 Center     Atomic      Atomic             Coordinates (Angstroms)
 Number     Number       Type             X           Y           Z
 ---------------------------------------------------------------------
      1          7           0        0.000000    0.000000   -0.000016
      2          1           0       -0.000000    1.026996    0.000038
      3          1           0       -0.889404   -0.513498    0.000038
      4          1           0        0.889404   -0.513498    0.000038
 ---------------------------------------------------------------------
 Rotational constants (GHZ):         316.9593973         316.9593973         158.4796994
 Standard basis: 6-311G(d,p) (5D, 7F)
 There are    25 symmetry adapted cartesian basis functions of A'  symmetry.
 There are    12 symmetry adapted cartesian basis functions of A"  symmetry.
 There are    24 symmetry adapted basis functions of A'  symmetry.
 There are    12 symmetry adapted basis functions of A"  symmetry.
    36 basis functions,    56 primitive gaussians,    37 cartesian basis functions
     5 alpha electrons        4 beta electrons
       nuclear repulsion energy        11.7130816025 Hartrees.
 NAtoms=    4 NActive=    4 NUniq=    2 SFac= 4.00D+00 NAtFMM=   60 NAOKFM=F Big=F
 Integral buffers will be    131072 words long.
 Raffenetti 2 integral format.
 Two-electron integral symmetry is turned on.
 One-electron integrals computed using PRISM.
 NBasis=    36 RedAO= T EigKep=  2.35D-02  NBF=    24    12
 NBsUse=    36 1.00D-06 EigRej= -1.00D+00 NBFU=    24    12
 Initial guess from the checkpoint file:  "6-311G_dp.chk"
 B after Tr=    -0.000000   -0.000000    0.000000
         Rot=    1.000000   -0.000000    0.000000    0.000000 Ang=   0.00 deg.
 Initial guess orbital symmetries:
 Alpha Orbitals:
       Occupied  (?A) (?A) (?B) (?B) (A1)
       Virtual   (?A) (?B) (?B) (?B) (?B) (?A) (A1) (?B) (?B) (?A)
                 (?B) (?B) (?A) (?B) (?B) (?A) (?A) (?B) (?B) (?A)
                 (?B) (?B) (?B) (?B) (?A) (?B) (?B) (A1) (?B) (?B)
                 (?A)
 Beta  Orbitals:
       Occupied  (?A) (?A) (?B) (?B)
       Virtual   (?A) (?A) (?B) (?B) (?B) (?B) (?A) (A1) (?B) (?B)
                 (?A) (?B) (?B) (?A) (?B) (?B) (?A) (?A) (?B) (?B)
                 (?A) (?B) (?B) (?B) (?B) (?A) (?B) (?B) (A1) (?B)
                 (?B) (?A)
 Initial guess <Sx>= 0.0000 <Sy>= 0.0000 <Sz>= 0.5000 <S**2>= 0.7535 S= 0.5018
 Keep R1 and R2 ints in memory in symmetry-blocked form, NReq=1091596.
 Requested convergence on RMS density matrix=1.00D-08 within 128 cycles.
 Requested convergence on MAX density matrix=1.00D-06.
 Requested convergence on             energy=1.00D-06.
 No special actions if energy rises.
 SCF Done:  E(UB3LYP) =  -56.2077232593     A.U. after    7 cycles
            NFock=  7  Conv=0.12D-08     -V/T= 2.0038
 <Sx>= 0.0000 <Sy>= 0.0000 <Sz>= 0.5000 <S**2>= 0.7535 S= 0.5018
 <L.S>= 0.000000000000E+00
 Annihilation of the first spin contaminant:
 S**2 before annihilation     0.7535,   after     0.7500
 Calling FoFJK, ICntrl=      2127 FMM=F ISym2X=1 I1Cent= 0 IOpClX= 1 NMat=1 NMatS=1 NMatT=0.
 ***** Axes restored to original set *****
 -------------------------------------------------------------------
 Center     Atomic                   Forces (Hartrees/Bohr)
 Number     Number              X              Y              Z
 -------------------------------------------------------------------
      1        7          -0.000007380    0.000000000   -0.000000000
      2        1           0.000002460    0.000004777    0.000000000
      3        1           0.000002460   -0.000002388   -0.000004137
      4        1           0.000002460   -0.000002388    0.000004137
 -------------------------------------------------------------------
 Cartesian Forces:  Max     0.000007380 RMS     0.000003429

 GradGradGradGradGradGradGradGradGradGradGradGradGradGradGradGradGradGrad
 Berny optimization.
 Using GEDIIS/GDIIS optimizer.
 FormGI is forming the generalized inverse of G from B-inverse, IUseBI=4.
 Internal  Forces:  Max     0.000004777 RMS     0.000003496
 Search for a local minimum.
 Step number   5 out of a maximum of   20
 All quantities printed in internal units (Hartrees-Bohrs-Radians)
 Mixed Optimization -- En-DIIS/RFO-DIIS
 Swapping is turned off.
 Update second derivatives using D2CorX and points    3    4    5
 DE= -4.68D-06 DEPred=-4.48D-06 R= 1.04D+00
 TightC=F SS=  1.41D+00  RLast= 2.00D-02 DXNew= 1.4270D+00 5.9985D-02
 Trust test= 1.04D+00 RLast= 2.00D-02 DXMaxT set to 8.49D-01
 The second derivative matrix:
                          R1        R2        R3        A1        A2
           R1           0.46402
           R2          -0.01287   0.46402
           R3          -0.01287  -0.01287   0.46402
           A1          -0.02749  -0.02749  -0.02749   0.12554
           A2          -0.01695  -0.01695  -0.01695  -0.03120   0.13495
           A3          -0.01695  -0.01695  -0.01695  -0.03120  -0.02505
           D1           0.00056   0.00056   0.00056  -0.00215  -0.00120
                          A3        D1
           A3           0.13495
           D1          -0.00120   0.02236
 ITU=  1  1  1  1  0
     Eigenvalues ---    0.02235   0.16000   0.16113   0.43909   0.47688
     Eigenvalues ---    0.47688
 En-DIIS/RFO-DIIS/Sim-DIIS IScMMF=       -3 using points:     5    4
 RFO step:  Lambda=-4.91739020D-10.
 DidBck=F Rises=F RFO-DIIS coefs:    1.00933   -0.00933
 Iteration  1 RMS(Cart)=  0.00003484 RMS(Int)=  0.00000036
 Iteration  2 RMS(Cart)=  0.00000000 RMS(Int)=  0.00000036
 ClnCor:  largest displacement from symmetrization is 4.28D-07 for atom     4.
 Variable       Old X    -DE/DX   Delta X   Delta X   Delta X     New X
                                 (Linear)    (Quad)   (Total)
    R1        1.94074  -0.00000  -0.00000  -0.00001  -0.00001   1.94073
    R2        1.94074  -0.00000  -0.00000  -0.00001  -0.00001   1.94073
    R3        1.94074  -0.00000  -0.00000  -0.00001  -0.00001   1.94073
    A1        2.09440  -0.00000   0.00000  -0.00000   0.00000   2.09440
    A2        2.09440   0.00000   0.00000   0.00000   0.00000   2.09440
    A3        2.09440   0.00000   0.00000   0.00000   0.00000   2.09440
    D1        3.14141   0.00000   0.00019  -0.00000   0.00019  -3.14159
         Item               Value     Threshold  Converged?
 Maximum Force            0.000005     0.000450     YES
 RMS     Force            0.000003     0.000300     YES
 Maximum Displacement     0.000078     0.001800     YES
 RMS     Displacement     0.000035     0.001200     YES
 Predicted change in Energy=-4.637486D-10
 Optimization completed.
    -- Stationary point found.
                           ----------------------------
                           !   Optimized Parameters   !
                           ! (Angstroms and Degrees)  !
 --------------------------                            --------------------------
 ! Name  Definition              Value          Derivative Info.                !
 --------------------------------------------------------------------------------
 ! R1    R(1,2)                  1.027          -DE/DX =    0.0                 !
 ! R2    R(1,3)                  1.027          -DE/DX =    0.0                 !
 ! R3    R(1,4)                  1.027          -DE/DX =    0.0                 !
 ! A1    A(2,1,3)              120.0            -DE/DX =    0.0                 !
 ! A2    A(2,1,4)              120.0            -DE/DX =    0.0                 !
 ! A3    A(3,1,4)              120.0            -DE/DX =    0.0                 !
 ! D1    D(2,1,4,3)           -180.0106         -DE/DX =    0.0                 !
 --------------------------------------------------------------------------------
 GradGradGradGradGradGradGradGradGradGradGradGradGradGradGradGradGradGrad

                          Input orientation:                          
 ---------------------------------------------------------------------
 Center     Atomic      Atomic             Coordinates (Angstroms)
 Number     Number       Type             X           Y           Z
 ---------------------------------------------------------------------
      1          7           0       -1.635142   -1.400003    0.000000
      2          1           0       -1.635209   -2.426999   -0.000000
      3          1           0       -1.635190   -0.886505    0.889404
      4          1           0       -1.635190   -0.886505   -0.889404
 ---------------------------------------------------------------------
                    Distance matrix (angstroms):
                    1          2          3          4
     1  N    0.000000
     2  H    1.026996   0.000000
     3  H    1.026996   1.778809   0.000000
     4  H    1.026996   1.778809   1.778809   0.000000
 Stoichiometry    H3N(1+,2)
 Framework group  C3V[C3(N),3SGV(H)]
 Deg. of freedom     2
 Full point group                 C3V     NOp   6
 Largest Abelian subgroup         CS      NOp   2
 Largest concise Abelian subgroup CS      NOp   2
                         Standard orientation:                         
 ---------------------------------------------------------------------
 Center     Atomic      Atomic             Coordinates (Angstroms)
 Number     Number       Type             X           Y           Z
 ---------------------------------------------------------------------
      1          7           0       -0.000000    0.000000   -0.000016
      2          1           0       -0.000000    1.026996    0.000038
      3          1           0       -0.889404   -0.513498    0.000038
      4          1           0        0.889404   -0.513498    0.000038
 ---------------------------------------------------------------------
 Rotational constants (GHZ):         316.9593973         316.9593973         158.4796994

 **********************************************************************

            Population analysis using the SCF density.

 **********************************************************************

 Orbital symmetries:
 Alpha Orbitals:
       Occupied  (?A) (?A) (?B) (?B) (A1)
       Virtual   (?A) (?B) (?B) (?B) (?B) (?A) (A1) (?B) (?B) (?A)
                 (?C) (?C) (?A) (?B) (?B) (A1) (?A) (?B) (?B) (?A)
                 (?C) (?C) (?B) (?B) (?A) (?B) (?B) (A1) (?B) (?B)
                 (?A)
 Beta  Orbitals:
       Occupied  (?A) (?A) (?B) (?B)
       Virtual   (A1) (?A) (?B) (?B) (?B) (?B) (?A) (A1) (?B) (?B)
                 (?A) (?C) (?C) (?A) (?B) (?B) (A1) (?A) (?B) (?B)
                 (?A) (?C) (?C) (?B) (?B) (?A) (?B) (?B) (A1) (?B)
                 (?B) (?A)
 Unable to determine electronic state:  an orbital has unidentified symmetry.
 Alpha  occ. eigenvalues --  -14.75660  -1.26615  -0.87664  -0.87664  -0.71447
 Alpha virt. eigenvalues --   -0.24359  -0.15624  -0.15624   0.03596   0.03596
 Alpha virt. eigenvalues --    0.05749   0.21255   0.36695   0.36695   0.52766
 Alpha virt. eigenvalues --    0.81322   0.81322   1.09000   1.22832   1.22832
 Alpha virt. eigenvalues --    1.36061   1.44879   1.65235   1.65235   1.98608
 Alpha virt. eigenvalues --    2.00838   2.00838   2.15669   2.15669   2.60195
 Alpha virt. eigenvalues --    2.65776   2.65776   3.21104   4.29683   4.29683
 Alpha virt. eigenvalues --   35.10343
  Beta  occ. eigenvalues --  -14.73443  -1.20816  -0.86036  -0.86036
  Beta virt. eigenvalues --   -0.49088  -0.23150  -0.15102  -0.15102   0.03717
  Beta virt. eigenvalues --    0.03717   0.07548   0.28726   0.37721   0.37721
  Beta virt. eigenvalues --    0.56072   0.83571   0.83571   1.08530   1.22924
  Beta virt. eigenvalues --    1.22924   1.36993   1.50389   1.65091   1.65091
  Beta virt. eigenvalues --    2.00114   2.07027   2.07027   2.15854   2.15854
  Beta virt. eigenvalues --    2.63832   2.66857   2.66857   3.31690   4.31974
  Beta virt. eigenvalues --    4.31974  35.12688
          Condensed to atoms (all electrons):
               1          2          3          4
     1  N    6.020487   0.348829   0.348829   0.348829
     2  H    0.348829   0.318602  -0.011544  -0.011544
     3  H    0.348829  -0.011544   0.318602  -0.011544
     4  H    0.348829  -0.011544  -0.011544   0.318602
          Atomic-Atomic Spin Densities.
               1          2          3          4
     1  N    1.121788  -0.006106  -0.006106  -0.006106
     2  H   -0.006106  -0.030402   0.001009   0.001009
     3  H   -0.006106   0.001009  -0.030402   0.001009
     4  H   -0.006106   0.001009   0.001009  -0.030402
 Mulliken charges and spin densities:
               1          2
     1  N   -0.066974   1.103470
     2  H    0.355658  -0.034490
     3  H    0.355658  -0.034490
     4  H    0.355658  -0.034490
 Sum of Mulliken charges =   1.00000   1.00000
 Mulliken charges and spin densities with hydrogens summed into heavy atoms:
               1          2
     1  N    1.000000   1.000000
 Electronic spatial extent (au):  <R**2>=             20.1986
 Charge=              1.0000 electrons
 Dipole moment (field-independent basis, Debye):
    X=              0.0000    Y=              0.0000    Z=              0.0002  Tot=              0.0002
 Quadrupole moment (field-independent basis, Debye-Ang):
   XX=             -2.9638   YY=             -2.9638   ZZ=             -6.0420
   XY=              0.0000   XZ=              0.0000   YZ=              0.0000
 Traceless Quadrupole moment (field-independent basis, Debye-Ang):
   XX=              1.0261   YY=              1.0261   ZZ=             -2.0521
   XY=              0.0000   XZ=              0.0000   YZ=              0.0000
 Octapole moment (field-independent basis, Debye-Ang**2):
  XXX=              0.0000  YYY=              1.9250  ZZZ=              0.0001  XYY=             -0.0000
  XXY=             -1.9250  XXZ=              0.0002  XZZ=             -0.0000  YZZ=             -0.0000
  YYZ=              0.0002  XYZ=              0.0000
 Hexadecapole moment (field-independent basis, Debye-Ang**3):
 XXXX=             -4.7356 YYYY=             -4.7356 ZZZZ=             -4.4013 XXXY=             -0.0000
 XXXZ=              0.0000 YYYX=              0.0000 YYYZ=              0.0001 ZZZX=              0.0000
 ZZZY=              0.0000 XXYY=             -1.5785 XXZZ=             -2.1117 YYZZ=             -2.1117
 XXYZ=             -0.0001 YYXZ=             -0.0000 ZZXY=             -0.0000
 N-N= 1.171308160252D+01 E-N=-1.512039309090D+02  KE= 5.599734987807D+01
 Symmetry A'   KE= 5.303155919962D+01
 Symmetry A"   KE= 2.965790678447D+00
 Symmetry A'   SP= 1.000000000000D+00
 Symmetry A"   SP= 5.693111726403D-15
                          Isotropic Fermi Contact Couplings
        Atom                 a.u.       MegaHertz       Gauss      10(-4) cm-1
     1  N(14)              0.11390      36.80031      13.13127      12.27526
     2  H(1)              -0.01674     -74.82466     -26.69930     -24.95882
     3  H(1)              -0.01674     -74.82466     -26.69930     -24.95882
     4  H(1)              -0.01674     -74.82466     -26.69930     -24.95882
 --------------------------------------------------------
       Center         ----  Spin Dipole Couplings  ----
                      3XX-RR        3YY-RR        3ZZ-RR
 --------------------------------------------------------
     1   Atom       -1.230600     -1.230600      2.461201
     2   Atom       -0.103617      0.131243     -0.027625
     3   Atom        0.072528     -0.044902     -0.027625
     4   Atom        0.072528     -0.044902     -0.027625
 --------------------------------------------------------
                        XY            XZ            YZ
 --------------------------------------------------------
     1   Atom        0.000000     -0.000000      0.000000
     2   Atom       -0.000000     -0.000000      0.000007
     3   Atom        0.101697     -0.000006     -0.000004
     4   Atom       -0.101697      0.000006     -0.000004
 --------------------------------------------------------


 ---------------------------------------------------------------------------------
              Anisotropic Spin Dipole Couplings in Principal Axis System
 ---------------------------------------------------------------------------------

       Atom             a.u.   MegaHertz   Gauss  10(-4) cm-1        Axes

              Baa    -1.2306   -47.462   -16.935   -15.831 -0.6056  0.7958 -0.0000
     1 N(14)  Bbb    -1.2306   -47.462   -16.935   -15.831  0.7958  0.6056  0.0000
              Bcc     2.4612    94.923    33.871    31.663  0.0000  0.0000  1.0000
 
              Baa    -0.1036   -55.285   -19.727   -18.441  1.0000  0.0000  0.0000
     2 H(1)   Bbb    -0.0276   -14.739    -5.259    -4.917 -0.0000 -0.0000  1.0000
              Bcc     0.1312    70.025    24.987    23.358 -0.0000  1.0000  0.0000
 
              Baa    -0.1036   -55.285   -19.727   -18.441 -0.5000  0.8660 -0.0000
     3 H(1)   Bbb    -0.0276   -14.739    -5.259    -4.917  0.0000  0.0000  1.0000
              Bcc     0.1312    70.025    24.987    23.358  0.8660  0.5000 -0.0000
 
              Baa    -0.1036   -55.285   -19.727   -18.441  0.5000  0.8660 -0.0000
     4 H(1)   Bbb    -0.0276   -14.739    -5.259    -4.917 -0.0000  0.0000  1.0000
              Bcc     0.1312    70.025    24.987    23.358  0.8660 -0.5000  0.0000
 

 ---------------------------------------------------------------------------------

 1\1\GINC-NODE670\FOpt\UB3LYP\6-311G(d,p)\H3N1(1+,2)\MAGBUK\30-Sep-2021
 \0\\# opt freq b3lyp/6-311g(d,p) geom=connectivity\\Title Card Require
 d\\1,2\N,-1.6351415664,-1.4000031685,0.\H,-1.6352090447,-2.4269987644,
 -0.0000000026\H,-1.6351902452,-0.8865053718,0.8894042776\H,-1.63519024
 52,-0.8865053673,-0.8894042749\\Version=ES64L-G16RevA.03\HF=-56.207723
 3\S2=0.753512\S2-1=0.\S2A=0.750007\RMSD=1.243e-09\RMSF=3.429e-06\Dipol
 e=-0.0000721,0.,0.\Quadrupole=-1.5257075,0.7628538,0.7628538,0.0000279
 ,0.,0.\PG=C03V [C3(N1),3SGV(H1)]\\@


 ON A CLEAR DISK YOU CAN SEEK FOREVER.
 Job cpu time:       0 days  0 hours  0 minutes 16.4 seconds.
 Elapsed time:       0 days  0 hours  0 minutes 16.7 seconds.
 File lengths (MBytes):  RWF=      6 Int=      0 D2E=      0 Chk=      2 Scr=      1
 Normal termination of Gaussian 16 at Thu Sep 30 14:21:58 2021.
 Link1:  Proceeding to internal job step number  2.
 ----------------------------------------------------------------------
 #N Geom=AllCheck Guess=TCheck SCRF=Check GenChk UB3LYP/6-311G(d,p) Fre
 q
 ----------------------------------------------------------------------
 1/10=4,29=7,30=1,38=1,40=1/1,3;
 2/12=2,40=1/2;
 3/5=4,6=6,7=101,11=2,14=-4,25=1,30=1,70=2,71=2,74=-5,116=2,140=1/1,2,3;
 4/5=101/1;
 5/5=2,38=6,98=1/2;
 8/6=4,10=90,11=11/1;
 11/6=1,8=1,9=11,15=111,16=1/1,2,10;
 10/6=1/2;
 6/7=2,8=2,9=2,10=2,28=1/1;
 7/8=1,10=1,25=1/1,2,3,16;
 1/10=4,30=1/3;
 99//99;
 Structure from the checkpoint file:  "6-311G_dp.chk"
 -------------------
 Title Card Required
 -------------------
 Charge =  1 Multiplicity = 2
 Redundant internal coordinates found in file.  (old form).
 N,0,-1.6351415664,-1.4000031685,0.
 H,0,-1.6352090447,-2.4269987644,-0.0000000026
 H,0,-1.6351902452,-0.8865053718,0.8894042776
 H,0,-1.6351902452,-0.8865053673,-0.8894042749
 Recover connectivity data from disk.

 GradGradGradGradGradGradGradGradGradGradGradGradGradGradGradGradGradGrad
 Berny optimization.
 Initialization pass.
                           ----------------------------
                           !    Initial Parameters    !
                           ! (Angstroms and Degrees)  !
 --------------------------                            --------------------------
 ! Name  Definition              Value          Derivative Info.                !
 --------------------------------------------------------------------------------
 ! R1    R(1,2)                  1.027          calculate D2E/DX2 analytically  !
 ! R2    R(1,3)                  1.027          calculate D2E/DX2 analytically  !
 ! R3    R(1,4)                  1.027          calculate D2E/DX2 analytically  !
 ! A1    A(2,1,3)              120.0            calculate D2E/DX2 analytically  !
 ! A2    A(2,1,4)              120.0            calculate D2E/DX2 analytically  !
 ! A3    A(3,1,4)              120.0            calculate D2E/DX2 analytically  !
 ! D1    D(2,1,4,3)            179.9894         calculate D2E/DX2 analytically  !
 --------------------------------------------------------------------------------
 Trust Radius=3.00D-01 FncErr=1.00D-07 GrdErr=1.00D-07 EigMax=2.50D+02 EigMin=1.00D-04
 Number of steps in this run=      2 maximum allowed number of steps=      2.
 GradGradGradGradGradGradGradGradGradGradGradGradGradGradGradGradGradGrad

                          Input orientation:                          
 ---------------------------------------------------------------------
 Center     Atomic      Atomic             Coordinates (Angstroms)
 Number     Number       Type             X           Y           Z
 ---------------------------------------------------------------------
      1          7           0       -1.635142   -1.400003    0.000000
      2          1           0       -1.635209   -2.426999   -0.000000
      3          1           0       -1.635190   -0.886505    0.889404
      4          1           0       -1.635190   -0.886505   -0.889404
 ---------------------------------------------------------------------
                    Distance matrix (angstroms):
                    1          2          3          4
     1  N    0.000000
     2  H    1.026996   0.000000
     3  H    1.026996   1.778809   0.000000
     4  H    1.026996   1.778809   1.778809   0.000000
 Stoichiometry    H3N(1+,2)
 Framework group  C3V[C3(N),3SGV(H)]
 Deg. of freedom     2
 Full point group                 C3V     NOp   6
 Largest Abelian subgroup         CS      NOp   2
 Largest concise Abelian subgroup CS      NOp   2
                         Standard orientation:                         
 ---------------------------------------------------------------------
 Center     Atomic      Atomic             Coordinates (Angstroms)
 Number     Number       Type             X           Y           Z
 ---------------------------------------------------------------------
      1          7           0        0.000000    0.000000   -0.000016
      2          1           0       -0.000000    1.026996    0.000038
      3          1           0       -0.889404   -0.513498    0.000038
      4          1           0        0.889404   -0.513498    0.000038
 ---------------------------------------------------------------------
 Rotational constants (GHZ):         316.9593973         316.9593973         158.4796994
 Standard basis: 6-311G(d,p) (5D, 7F)
 There are    25 symmetry adapted cartesian basis functions of A'  symmetry.
 There are    12 symmetry adapted cartesian basis functions of A"  symmetry.
 There are    24 symmetry adapted basis functions of A'  symmetry.
 There are    12 symmetry adapted basis functions of A"  symmetry.
    36 basis functions,    56 primitive gaussians,    37 cartesian basis functions
     5 alpha electrons        4 beta electrons
       nuclear repulsion energy        11.7130816025 Hartrees.
 NAtoms=    4 NActive=    4 NUniq=    2 SFac= 4.00D+00 NAtFMM=   60 NAOKFM=F Big=F
 Integral buffers will be    131072 words long.
 Raffenetti 2 integral format.
 Two-electron integral symmetry is turned on.
 One-electron integrals computed using PRISM.
 NBasis=    36 RedAO= T EigKep=  2.35D-02  NBF=    24    12
 NBsUse=    36 1.00D-06 EigRej= -1.00D+00 NBFU=    24    12
 Initial guess from the checkpoint file:  "6-311G_dp.chk"
 B after Tr=     0.000000    0.000000   -0.000000
         Rot=    1.000000    0.000000    0.000000   -0.000000 Ang=   0.00 deg.
 Initial guess orbital symmetries:
 Alpha Orbitals:
       Occupied  (?A) (?A) (?B) (?B) (A1)
       Virtual   (?A) (?B) (?B) (?B) (?B) (?A) (A1) (?B) (?B) (?A)
                 (?C) (?C) (?A) (?B) (?B) (A1) (?A) (?B) (?B) (?A)
                 (?C) (?C) (?B) (?B) (?A) (?B) (?B) (A1) (?B) (?B)
                 (?A)
 Beta  Orbitals:
       Occupied  (?A) (?A) (?B) (?B)
       Virtual   (A1) (?A) (?B) (?B) (?B) (?B) (?A) (A1) (?B) (?B)
                 (?A) (?C) (?C) (?A) (?B) (?B) (A1) (?A) (?B) (?B)
                 (?A) (?C) (?C) (?B) (?B) (?A) (?B) (?B) (A1) (?B)
                 (?B) (?A)
 Initial guess <Sx>= 0.0000 <Sy>= 0.0000 <Sz>= 0.5000 <S**2>= 0.7535 S= 0.5018
 Keep R1 and R2 ints in memory in symmetry-blocked form, NReq=1091596.
 Requested convergence on RMS density matrix=1.00D-08 within 128 cycles.
 Requested convergence on MAX density matrix=1.00D-06.
 Requested convergence on             energy=1.00D-06.
 No special actions if energy rises.
 SCF Done:  E(UB3LYP) =  -56.2077232593     A.U. after    1 cycles
            NFock=  1  Conv=0.15D-09     -V/T= 2.0038
 <Sx>= 0.0000 <Sy>= 0.0000 <Sz>= 0.5000 <S**2>= 0.7535 S= 0.5018
 <L.S>= 0.000000000000E+00
 Annihilation of the first spin contaminant:
 S**2 before annihilation     0.7535,   after     0.7500
 DoSCS=F DFT=T ScalE2(SS,OS)=  1.000000  1.000000
 Range of M.O.s used for correlation:     1    36
 NBasis=    36 NAE=     5 NBE=     4 NFC=     0 NFV=     0
 NROrb=     36 NOA=     5 NOB=     4 NVA=    31 NVB=    32
 Symmetrizing basis deriv contribution to polar:
 IMax=3 JMax=2 DiffMx= 0.00D+00
 G2DrvN: will do     5 centers at a time, making    1 passes.
 Calling FoFCou, ICntrl=  3107 FMM=F I1Cent=   0 AccDes= 0.00D+00.
 End of G2Drv F.D. properties file   721 does not exist.
 End of G2Drv F.D. properties file   722 does not exist.
 End of G2Drv F.D. properties file   788 does not exist.
          IDoAtm=1111
          Differentiating once with respect to electric field.
                with respect to dipole field.
          Differentiating once with respect to nuclear coordinates.
 Keep R1 and R2 ints in memory in symmetry-blocked form, NReq=1091892.
          There are     9 degrees of freedom in the 1st order CPHF.  IDoFFX=4 NUNeed=     9.
      9 vectors produced by pass  0 Test12= 3.14D-15 1.11D-08 XBig12= 5.65D+00 1.00D+00.
 AX will form     9 AO Fock derivatives at one time.
      9 vectors produced by pass  1 Test12= 3.14D-15 1.11D-08 XBig12= 1.69D-01 3.03D-01.
      9 vectors produced by pass  2 Test12= 3.14D-15 1.11D-08 XBig12= 6.81D-04 1.60D-02.
      9 vectors produced by pass  3 Test12= 3.14D-15 1.11D-08 XBig12= 2.36D-06 5.92D-04.
      9 vectors produced by pass  4 Test12= 3.14D-15 1.11D-08 XBig12= 1.01D-08 4.68D-05.
      7 vectors produced by pass  5 Test12= 3.14D-15 1.11D-08 XBig12= 5.83D-11 2.90D-06.
      3 vectors produced by pass  6 Test12= 3.14D-15 1.11D-08 XBig12= 2.00D-13 1.70D-07.
      1 vectors produced by pass  7 Test12= 3.14D-15 1.11D-08 XBig12= 6.81D-16 1.83D-08.
 InvSVY:  IOpt=1 It=  1 EMax= 2.22D-16
 Solved reduced A of dimension    56 with     9 vectors.
 Isotropic polarizability for W=    0.000000        6.35 Bohr**3.
 End of Minotr F.D. properties file   721 does not exist.
 End of Minotr F.D. properties file   722 does not exist.
 End of Minotr F.D. properties file   788 does not exist.

 **********************************************************************

            Population analysis using the SCF density.

 **********************************************************************

 Orbital symmetries:
 Alpha Orbitals:
       Occupied  (?A) (?A) (?B) (?B) (A1)
       Virtual   (?A) (?B) (?B) (?B) (?B) (?A) (A1) (?B) (?B) (?A)
                 (?C) (?C) (?A) (?B) (?B) (A1) (?A) (?B) (?B) (?A)
                 (?C) (?C) (?B) (?B) (?A) (?B) (?B) (A1) (?B) (?B)
                 (?A)
 Beta  Orbitals:
       Occupied  (?A) (?A) (?B) (?B)
       Virtual   (A1) (?A) (?B) (?B) (?B) (?B) (?A) (A1) (?B) (?B)
                 (?A) (?C) (?C) (?A) (?B) (?B) (A1) (?A) (?B) (?B)
                 (?A) (?C) (?C) (?B) (?B) (?A) (?B) (?B) (A1) (?B)
                 (?B) (?A)
 Unable to determine electronic state:  an orbital has unidentified symmetry.
 Alpha  occ. eigenvalues --  -14.75660  -1.26615  -0.87664  -0.87664  -0.71447
 Alpha virt. eigenvalues --   -0.24359  -0.15624  -0.15624   0.03596   0.03596
 Alpha virt. eigenvalues --    0.05749   0.21255   0.36695   0.36695   0.52766
 Alpha virt. eigenvalues --    0.81322   0.81322   1.09000   1.22832   1.22832
 Alpha virt. eigenvalues --    1.36061   1.44879   1.65235   1.65235   1.98608
 Alpha virt. eigenvalues --    2.00838   2.00838   2.15669   2.15669   2.60195
 Alpha virt. eigenvalues --    2.65776   2.65776   3.21104   4.29683   4.29683
 Alpha virt. eigenvalues --   35.10343
  Beta  occ. eigenvalues --  -14.73443  -1.20816  -0.86036  -0.86036
  Beta virt. eigenvalues --   -0.49088  -0.23150  -0.15102  -0.15102   0.03717
  Beta virt. eigenvalues --    0.03717   0.07548   0.28726   0.37721   0.37721
  Beta virt. eigenvalues --    0.56072   0.83571   0.83571   1.08530   1.22924
  Beta virt. eigenvalues --    1.22924   1.36993   1.50389   1.65091   1.65091
  Beta virt. eigenvalues --    2.00114   2.07027   2.07027   2.15854   2.15854
  Beta virt. eigenvalues --    2.63832   2.66857   2.66857   3.31690   4.31974
  Beta virt. eigenvalues --    4.31974  35.12688
          Condensed to atoms (all electrons):
               1          2          3          4
     1  N    6.020487   0.348829   0.348829   0.348829
     2  H    0.348829   0.318602  -0.011544  -0.011544
     3  H    0.348829  -0.011544   0.318602  -0.011544
     4  H    0.348829  -0.011544  -0.011544   0.318602
          Atomic-Atomic Spin Densities.
               1          2          3          4
     1  N    1.121788  -0.006106  -0.006106  -0.006106
     2  H   -0.006106  -0.030402   0.001009   0.001009
     3  H   -0.006106   0.001009  -0.030402   0.001009
     4  H   -0.006106   0.001009   0.001009  -0.030402
 Mulliken charges and spin densities:
               1          2
     1  N   -0.066974   1.103470
     2  H    0.355658  -0.034490
     3  H    0.355658  -0.034490
     4  H    0.355658  -0.034490
 Sum of Mulliken charges =   1.00000   1.00000
 Mulliken charges and spin densities with hydrogens summed into heavy atoms:
               1          2
     1  N    1.000000   1.000000
 APT charges:
               1
     1  N   -0.063750
     2  H    0.354583
     3  H    0.354583
     4  H    0.354583
 Sum of APT charges =   1.00000
 APT charges with hydrogens summed into heavy atoms:
               1
     1  N    0.999999
 Electronic spatial extent (au):  <R**2>=             20.1986
 Charge=              1.0000 electrons
 Dipole moment (field-independent basis, Debye):
    X=              0.0000    Y=             -0.0000    Z=              0.0002  Tot=              0.0002
 Quadrupole moment (field-independent basis, Debye-Ang):
   XX=             -2.9638   YY=             -2.9638   ZZ=             -6.0420
   XY=              0.0000   XZ=              0.0000   YZ=              0.0000
 Traceless Quadrupole moment (field-independent basis, Debye-Ang):
   XX=              1.0261   YY=              1.0261   ZZ=             -2.0521
   XY=              0.0000   XZ=              0.0000   YZ=              0.0000
 Octapole moment (field-independent basis, Debye-Ang**2):
  XXX=              0.0000  YYY=              1.9250  ZZZ=              0.0001  XYY=             -0.0000
  XXY=             -1.9250  XXZ=              0.0002  XZZ=             -0.0000  YZZ=             -0.0000
  YYZ=              0.0002  XYZ=              0.0000
 Hexadecapole moment (field-independent basis, Debye-Ang**3):
 XXXX=             -4.7356 YYYY=             -4.7356 ZZZZ=             -4.4013 XXXY=             -0.0000
 XXXZ=              0.0000 YYYX=              0.0000 YYYZ=              0.0001 ZZZX=              0.0000
 ZZZY=             -0.0000 XXYY=             -1.5785 XXZZ=             -2.1117 YYZZ=             -2.1117
 XXYZ=             -0.0001 YYXZ=             -0.0000 ZZXY=             -0.0000
 N-N= 1.171308160252D+01 E-N=-1.512039308258D+02  KE= 5.599734983729D+01
 Symmetry A'   KE= 5.303155916991D+01
 Symmetry A"   KE= 2.965790667375D+00
 Symmetry A'   SP= 1.000000000000D+00
 Symmetry A"   SP=-2.641777177874D-15
  Exact polarizability:   7.438   0.000   7.438  -0.000  -0.000   4.166
 Approx polarizability:   8.969   0.000   8.969   0.000  -0.000   4.901
                          Isotropic Fermi Contact Couplings
        Atom                 a.u.       MegaHertz       Gauss      10(-4) cm-1
     1  N(14)              0.11390      36.80031      13.13126      12.27526
     2  H(1)              -0.01674     -74.82466     -26.69930     -24.95882
     3  H(1)              -0.01674     -74.82466     -26.69930     -24.95882
     4  H(1)              -0.01674     -74.82466     -26.69930     -24.95882
 --------------------------------------------------------
       Center         ----  Spin Dipole Couplings  ----
                      3XX-RR        3YY-RR        3ZZ-RR
 --------------------------------------------------------
     1   Atom       -1.230600     -1.230600      2.461201
     2   Atom       -0.103617      0.131243     -0.027625
     3   Atom        0.072528     -0.044902     -0.027625
     4   Atom        0.072528     -0.044902     -0.027625
 --------------------------------------------------------
                        XY            XZ            YZ
 --------------------------------------------------------
     1   Atom        0.000000     -0.000000     -0.000000
     2   Atom        0.000000      0.000000      0.000007
     3   Atom        0.101697     -0.000006     -0.000004
     4   Atom       -0.101697      0.000006     -0.000004
 --------------------------------------------------------


 ---------------------------------------------------------------------------------
              Anisotropic Spin Dipole Couplings in Principal Axis System
 ---------------------------------------------------------------------------------

       Atom             a.u.   MegaHertz   Gauss  10(-4) cm-1        Axes

              Baa    -1.2306   -47.462   -16.935   -15.831 -0.3866  0.9222 -0.0000
     1 N(14)  Bbb    -1.2306   -47.462   -16.935   -15.831  0.9222  0.3866 -0.0000
              Bcc     2.4612    94.923    33.871    31.663  0.0000  0.0000  1.0000
 
              Baa    -0.1036   -55.285   -19.727   -18.441  1.0000 -0.0000  0.0000
     2 H(1)   Bbb    -0.0276   -14.739    -5.259    -4.917 -0.0000 -0.0000  1.0000
              Bcc     0.1312    70.025    24.987    23.358  0.0000  1.0000  0.0000
 
              Baa    -0.1036   -55.285   -19.727   -18.441 -0.5000  0.8660  0.0000
     3 H(1)   Bbb    -0.0276   -14.739    -5.259    -4.917  0.0000  0.0000  1.0000
              Bcc     0.1312    70.025    24.987    23.358  0.8660  0.5000 -0.0000
 
              Baa    -0.1036   -55.285   -19.727   -18.441  0.5000  0.8660  0.0000
     4 H(1)   Bbb    -0.0276   -14.739    -5.259    -4.917 -0.0000  0.0000  1.0000
              Bcc     0.1312    70.025    24.987    23.358  0.8660 -0.5000  0.0000
 

 ---------------------------------------------------------------------------------

 Calling FoFJK, ICntrl=    100127 FMM=F ISym2X=1 I1Cent= 0 IOpClX= 1 NMat=1 NMatS=1 NMatT=0.
 Full mass-weighted force constant matrix:
 Low frequencies ---  -20.2408  -20.2393   -0.0650    0.0006    0.2451    5.4014
 Low frequencies ---  869.1431 1530.4076 1530.4076
 Diagonal vibrational polarizability:
        1.4787195       1.4787144       9.3243610
 Harmonic frequencies (cm**-1), IR intensities (KM/Mole), Raman scattering
 activities (A**4/AMU), depolarization ratios for plane and unpolarized
 incident light, reduced masses (AMU), force constants (mDyne/A),
 and normal coordinates:
                      1                      2                      3
                     A1                     ?A                     ?A
 Frequencies --    869.1431              1530.4076              1530.4076
 Red. masses --      1.2067                 1.0882                 1.0882
 Frc consts  --      0.5371                 1.5016                 1.5016
 IR Inten    --    261.7390                75.9497                75.9492
  Atom  AN      X      Y      Z        X      Y      Z        X      Y      Z
     1   7    -0.00  -0.00  -0.12    -0.08   0.00   0.00    -0.00  -0.08   0.00
     2   1     0.00  -0.00   0.57     0.81   0.00  -0.00     0.00  -0.08   0.00
     3   1     0.00   0.00   0.57     0.14  -0.39  -0.00    -0.39   0.59  -0.00
     4   1    -0.00   0.00   0.57     0.14   0.39   0.00     0.39   0.59  -0.00
                      4                      5                      6
                     ?B                     ?A                     ?A
 Frequencies --   3341.9215              3516.1953              3516.1953
 Red. masses --      1.0078                 1.1087                 1.1087
 Frc consts  --      6.6317                 8.0761                 8.0761
 IR Inten    --      0.0000               278.4379               278.4380
  Atom  AN      X      Y      Z        X      Y      Z        X      Y      Z
     1   7    -0.00  -0.00  -0.00    -0.09   0.00   0.00    -0.00  -0.09  -0.00
     2   1     0.00   0.58   0.00     0.00  -0.00  -0.00     0.00   0.81   0.00
     3   1    -0.50  -0.29   0.00     0.61   0.35  -0.00     0.35   0.21  -0.00
     4   1     0.50  -0.29   0.00     0.61  -0.35   0.00    -0.35   0.21  -0.00

 -------------------
 - Thermochemistry -
 -------------------
 Temperature   298.150 Kelvin.  Pressure   1.00000 Atm.
 Atom     1 has atomic number  7 and mass  14.00307
 Atom     2 has atomic number  1 and mass   1.00783
 Atom     3 has atomic number  1 and mass   1.00783
 Atom     4 has atomic number  1 and mass   1.00783
 Molecular mass:    17.02655 amu.
 Principal axes and moments of inertia in atomic units:
                           1         2         3
     Eigenvalues --     5.69392   5.69392  11.38784
           X            0.41790   0.90849   0.00000
           Y            0.90849  -0.41790   0.00000
           Z            0.00000   0.00000   1.00000
 This molecule is an oblate symmetric top.
 Rotational symmetry number  3.
 Rotational temperatures (Kelvin)     15.21165    15.21165     7.60583
 Rotational constants (GHZ):         316.95940   316.95940   158.47970
 Zero-point vibrational energy      85558.5 (Joules/Mol)
                                   20.44898 (Kcal/Mol)
 Vibrational temperatures:   1250.50  2201.92  2201.92  4808.28  5059.02
          (Kelvin)           5059.02
 
 Zero-point correction=                           0.032588 (Hartree/Particle)
 Thermal correction to Energy=                    0.035489
 Thermal correction to Enthalpy=                  0.036434
 Thermal correction to Gibbs Free Energy=         0.013870
 Sum of electronic and zero-point Energies=            -56.175136
 Sum of electronic and thermal Energies=               -56.172234
 Sum of electronic and thermal Enthalpies=             -56.171290
 Sum of electronic and thermal Free Energies=          -56.193854
 
                     E (Thermal)             CV                S
                      KCal/Mol        Cal/Mol-Kelvin    Cal/Mol-Kelvin
 Total                   22.270              6.640             47.490
 Electronic               0.000              0.000              1.377
 Translational            0.889              2.981             34.441
 Rotational               0.889              2.981             11.493
 Vibrational             20.492              0.678              0.179
                       Q            Log10(Q)             Ln(Q)
 Total Bot       0.417312D-06         -6.379539        -14.689431
 Total V=0       0.407070D+09          8.609669         19.824496
 Vib (Bot)       0.104215D-14        -14.982069        -34.497488
 Vib (V=0)       0.101657D+01          0.007139          0.016439
 Electronic      0.200000D+01          0.301030          0.693147
 Translational   0.276149D+07          6.441144         14.831282
 Rotational      0.725031D+02          1.860356          4.283629
 ***** Axes restored to original set *****
 -------------------------------------------------------------------
 Center     Atomic                   Forces (Hartrees/Bohr)
 Number     Number              X              Y              Z
 -------------------------------------------------------------------
      1        7          -0.000007380    0.000000000   -0.000000000
      2        1           0.000002460    0.000004778    0.000000000
      3        1           0.000002460   -0.000002389   -0.000004138
      4        1           0.000002460   -0.000002389    0.000004138
 -------------------------------------------------------------------
 Cartesian Forces:  Max     0.000007380 RMS     0.000003429
 FormGI is forming the generalized inverse of G from B-inverse, IUseBI=4.

 GradGradGradGradGradGradGradGradGradGradGradGradGradGradGradGradGradGrad
 Berny optimization.
 Internal  Forces:  Max     0.000004779 RMS     0.000003497
 Search for a local minimum.
 Step number   1 out of a maximum of    2
 All quantities printed in internal units (Hartrees-Bohrs-Radians)
 Second derivative matrix not updated -- analytic derivatives used.
 The second derivative matrix:
                          R1        R2        R3        A1        A2
           R1           0.42608
           R2          -0.00006   0.42608
           R3          -0.00006  -0.00006   0.42608
           A1           0.00253   0.00253  -0.00506   0.06813
           A2           0.00253  -0.00506   0.00253  -0.03407   0.06813
           A3          -0.00506   0.00253   0.00253  -0.03407  -0.03407
           D1           0.00000   0.00000   0.00000  -0.00000   0.00000
                          A3        D1
           A3           0.06813
           D1           0.00000   0.02231
 ITU=  0
     Eigenvalues ---    0.02231   0.10202   0.10202   0.42596   0.42632
     Eigenvalues ---    0.42632
 Angle between quadratic step and forces=  57.47 degrees.
 Linear search not attempted -- first point.
 Iteration  1 RMS(Cart)=  0.00003476 RMS(Int)=  0.00000001
 Iteration  2 RMS(Cart)=  0.00000000 RMS(Int)=  0.00000000
 ClnCor:  largest displacement from symmetrization is 1.77D-09 for atom     4.
 Variable       Old X    -DE/DX   Delta X   Delta X   Delta X     New X
                                 (Linear)    (Quad)   (Total)
    R1        1.94074  -0.00000   0.00000  -0.00001  -0.00001   1.94073
    R2        1.94074  -0.00000   0.00000  -0.00001  -0.00001   1.94073
    R3        1.94074  -0.00000   0.00000  -0.00001  -0.00001   1.94073
    A1        2.09440  -0.00000   0.00000   0.00000   0.00000   2.09440
    A2        2.09440   0.00000   0.00000   0.00000   0.00000   2.09440
    A3        2.09440   0.00000   0.00000   0.00000   0.00000   2.09440
    D1        3.14141   0.00000   0.00000   0.00019   0.00019   3.14159
         Item               Value     Threshold  Converged?
 Maximum Force            0.000005     0.000450     YES
 RMS     Force            0.000003     0.000300     YES
 Maximum Displacement     0.000078     0.001800     YES
 RMS     Displacement     0.000035     0.001200     YES
 Predicted change in Energy=-4.634819D-10
 Optimization completed.
    -- Stationary point found.
                           ----------------------------
                           !   Optimized Parameters   !
                           ! (Angstroms and Degrees)  !
 --------------------------                            --------------------------
 ! Name  Definition              Value          Derivative Info.                !
 --------------------------------------------------------------------------------
 ! R1    R(1,2)                  1.027          -DE/DX =    0.0                 !
 ! R2    R(1,3)                  1.027          -DE/DX =    0.0                 !
 ! R3    R(1,4)                  1.027          -DE/DX =    0.0                 !
 ! A1    A(2,1,3)              120.0            -DE/DX =    0.0                 !
 ! A2    A(2,1,4)              120.0            -DE/DX =    0.0                 !
 ! A3    A(3,1,4)              120.0            -DE/DX =    0.0                 !
 ! D1    D(2,1,4,3)            179.9894         -DE/DX =    0.0                 !
 --------------------------------------------------------------------------------
 GradGradGradGradGradGradGradGradGradGradGradGradGradGradGradGradGradGrad


 ----------------------------------------------------------------------

 Electric dipole moment (input orientation):
 (Debye = 10**-18 statcoulomb cm , SI units = C m)
                  (au)            (Debye)         (10**-30 SI)
   Tot        0.721280D-04      0.183331D-03      0.611526D-03
   x         -0.721280D-04     -0.183331D-03     -0.611526D-03
   y          0.000000D+00      0.000000D+00      0.000000D+00
   z          0.000000D+00      0.000000D+00      0.000000D+00

 Dipole polarizability, Alpha (input orientation).
 (esu units = cm**3 , SI units = C**2 m**2 J**-1)
 Alpha(0;0):
               (au)            (10**-24 esu)      (10**-40 SI)
   iso        0.634736D+01      0.940582D+00      0.104654D+01
   aniso      0.327270D+01      0.484964D+00      0.539595D+00
   xx         0.416556D+01      0.617273D+00      0.686809D+00
   yx         0.399373D-04      0.591810D-05      0.658477D-05
   yy         0.743824D+01      0.110223D+01      0.122640D+01
   zx         0.000000D+00      0.000000D+00      0.000000D+00
   zy         0.000000D+00      0.000000D+00      0.000000D+00
   zz         0.743829D+01      0.110224D+01      0.122641D+01

 ----------------------------------------------------------------------

 Dipole orientation:
     7         -0.00003229         -2.64566027          3.08993745
     1         -0.00005598         -4.58640068          3.09004128
     1          1.68071005         -1.67531058          3.09004128
     1         -1.68075094         -1.67526955          3.09004128

 Electric dipole moment (dipole orientation):
 (Debye = 10**-18 statcoulomb cm , SI units = C m)
                  (au)            (Debye)         (10**-30 SI)
   Tot        0.721280D-04      0.183331D-03      0.611526D-03
   x          0.000000D+00      0.000000D+00      0.000000D+00
   y          0.000000D+00      0.000000D+00      0.000000D+00
   z          0.721280D-04      0.183331D-03      0.611526D-03

 Dipole polarizability, Alpha (dipole orientation).
 (esu units = cm**3 , SI units = C**2 m**2 J**-1)
 Alpha(0;0):
               (au)            (10**-24 esu)      (10**-40 SI)
   iso        0.634736D+01      0.940582D+00      0.104654D+01
   aniso      0.327270D+01      0.484964D+00      0.539595D+00
   xx         0.743829D+01      0.110224D+01      0.122641D+01
   yx         0.000000D+00      0.000000D+00      0.000000D+00
   yy         0.743824D+01      0.110223D+01      0.122640D+01
   zx         0.000000D+00      0.000000D+00      0.000000D+00
   zy         0.000000D+00      0.000000D+00      0.000000D+00
   zz         0.416556D+01      0.617273D+00      0.686809D+00

 ----------------------------------------------------------------------
 1\1\GINC-NODE670\Freq\UB3LYP\6-311G(d,p)\H3N1(1+,2)\MAGBUK\30-Sep-2021
 \0\\#N Geom=AllCheck Guess=TCheck SCRF=Check GenChk UB3LYP/6-311G(d,p)
  Freq\\Title Card Required\\1,2\N,-1.6351415664,-1.4000031685,0.\H,-1.
 6352090447,-2.4269987644,-0.0000000026\H,-1.6351902452,-0.8865053718,0
 .8894042776\H,-1.6351902452,-0.8865053673,-0.8894042749\\Version=ES64L
 -G16RevA.03\HF=-56.2077233\S2=0.753512\S2-1=0.\S2A=0.750007\RMSD=1.517
 e-10\RMSF=3.429e-06\ZeroPoint=0.0325875\Thermal=0.0354894\Dipole=-0.00
 00721,0.,0.\DipoleDeriv=0.0053504,-0.0000013,0.,-0.0000013,-0.0982994,
 0.,0.,0.,-0.0983007,0.3315469,0.0000052,0.,0.000011,0.4532232,0.,0.,0.
 ,0.2789782,0.3315491,-0.000002,-0.0000023,-0.0000049,0.3225388,0.07545
 06,-0.0000073,0.0754506,0.4096616,0.3315491,-0.000002,0.0000023,-0.000
 0049,0.3225388,-0.0754506,0.0000073,-0.0754506,0.4096616\Polar=4.16556
 41,0.0000399,7.438241,0.,0.,7.4382857\Quadrupole=-1.5257075,0.7628538,
 0.7628538,0.0000279,0.,0.\PG=C03V [C3(N1),3SGV(H1)]\NImag=0\\0.0710880
 1,0.00000818,0.74098179,0.,0.,0.74098147,-0.02369473,-0.00002871,0.,0.
 00788783,-0.00002235,-0.41936427,0.,0.00002505,0.42608144,0.,0.,-0.074
 62346,0.,0.,0.05426790,-0.02369568,0.00001027,0.00001886,0.00790345,-0
 .00000135,-0.00000188,0.00788783,0.00000709,-0.16080871,-0.14927708,0.
 00000183,-0.00335860,-0.02545479,-0.00000827,0.14722128,0.00001335,-0.
 14927716,-0.33317904,0.00000029,0.00200906,0.01017780,-0.00001531,0.16
 099999,0.33312806,-0.02369568,0.00001027,-0.00001886,0.00790345,-0.000
 00135,0.00000188,0.00790345,-0.00000065,0.00000167,0.00788783,0.000007
 09,-0.16080871,0.14927708,0.00000183,-0.00335860,0.02545479,-0.0000006
 5,0.01694600,-0.01373192,-0.00000827,0.14722129,-0.00001335,0.14927716
 ,-0.33317903,-0.00000029,-0.00200906,0.01017780,-0.00000167,0.01373192
 ,-0.01012680,0.00001531,-0.16099999,0.33312806\\0.00000738,0.,0.,-0.00
 000246,-0.00000478,0.,-0.00000246,0.00000239,0.00000414,-0.00000246,0.
 00000239,-0.00000414\\\@


 The earth never tires,
 The earth is rude, silent, incomprehensible at first,
 Nature is rude and incomprehensible at first,
 Be not discouraged, keep on,
 There are divine things well envelop'd,
 I swear to you there are divine things more beautiful than words can tell.
                                 -- Walt Whitman
 Job cpu time:       0 days  0 hours  0 minutes 11.8 seconds.
 Elapsed time:       0 days  0 hours  0 minutes 11.8 seconds.
 File lengths (MBytes):  RWF=      6 Int=      0 D2E=      0 Chk=      2 Scr=      1
 Normal termination of Gaussian 16 at Thu Sep 30 14:22:13 2021.
