

     ************************************************************************
     *************** Dalton - An Electronic Structure Program ***************
     ************************************************************************

    This is output from DALTON release Dalton2016.1 (2016)
         ( Web site: http://daltonprogram.org )

   ----------------------------------------------------------------------------

    NOTE:
     
    Dalton is an experimental code for the evaluation of molecular
    properties using (MC)SCF, DFT, CI, and CC wave functions.
    The authors accept no responsibility for the performance of
    the code or for the correctness of the results.
     
    The code (in whole or part) is provided under a licence and
    is not to be reproduced for further distribution without
    the written permission of the authors or their representatives.
     
    See the home page "http://daltonprogram.org" for further information.
     
    If results obtained with this code are published,
    the appropriate citations would be both of:
     
       K. Aidas, C. Angeli, K. L. Bak, V. Bakken, R. Bast,
       L. Boman, O. Christiansen, R. Cimiraglia, S. Coriani,
       P. Dahle, E. K. Dalskov, U. Ekstroem,
       T. Enevoldsen, J. J. Eriksen, P. Ettenhuber, B. Fernandez,
       L. Ferrighi, H. Fliegl, L. Frediani, K. Hald, A. Halkier,
       C. Haettig, H. Heiberg, T. Helgaker, A. C. Hennum,
       H. Hettema, E. Hjertenaes, S. Hoest, I.-M. Hoeyvik,
       M. F. Iozzi, B. Jansik, H. J. Aa. Jensen, D. Jonsson,
       P. Joergensen, J. Kauczor, S. Kirpekar,
       T. Kjaergaard, W. Klopper, S. Knecht, R. Kobayashi, H. Koch,
       J. Kongsted, A. Krapp, K. Kristensen, A. Ligabue,
       O. B. Lutnaes, J. I. Melo, K. V. Mikkelsen, R. H. Myhre,
       C. Neiss, C. B. Nielsen, P. Norman, J. Olsen,
       J. M. H. Olsen, A. Osted, M. J. Packer, F. Pawlowski,
       T. B. Pedersen, P. F. Provasi, S. Reine, Z. Rinkevicius,
       T. A. Ruden, K. Ruud, V. Rybkin, P. Salek, C. C. M. Samson,
       A. Sanchez de Meras, T. Saue, S. P. A. Sauer,
       B. Schimmelpfennig, K. Sneskov, A. H. Steindal,
       K. O. Sylvester-Hvid, P. R. Taylor, A. M. Teale,
       E. I. Tellgren, D. P. Tew, A. J. Thorvaldsen, L. Thoegersen,
       O. Vahtras, M. A. Watson, D. J. D. Wilson, M. Ziolkowski
       and H. Agren,
       "The Dalton quantum chemistry program system",
       WIREs Comput. Mol. Sci. 2014, 4:269–284 (doi: 10.1002/wcms.1172)
     
    and
     
       Dalton, a Molecular Electronic Structure Program,
       Release Dalton2016.1 (2016), see http://daltonprogram.org
   ----------------------------------------------------------------------------

    Authors in alphabetical order (major contribution(s) in parenthesis):

  Kestutis Aidas,           Vilnius University,           Lithuania   (QM/MM)
  Celestino Angeli,         University of Ferrara,        Italy       (NEVPT2)
  Keld L. Bak,              UNI-C,                        Denmark     (AOSOPPA, non-adiabatic coupling, magnetic properties)
  Vebjoern Bakken,          University of Oslo,           Norway      (DALTON; geometry optimizer, symmetry detection)
  Radovan Bast,             UiT The Arctic U. of Norway,  Norway      (DALTON installation and execution frameworks)
  Pablo Baudin,             University of Valencia,       Spain       (Cholesky excitation energies)
  Linus Boman,              NTNU,                         Norway      (Cholesky decomposition and subsystems)
  Ove Christiansen,         Aarhus University,            Denmark     (CC module)
  Renzo Cimiraglia,         University of Ferrara,        Italy       (NEVPT2)
  Sonia Coriani,            University of Trieste,        Italy       (CC module, MCD in RESPONS)
  Janusz Cukras,            University of Trieste,        Italy       (MChD in RESPONS)
  Paal Dahle,               University of Oslo,           Norway      (Parallelization)
  Erik K. Dalskov,          UNI-C,                        Denmark     (SOPPA)
  Thomas Enevoldsen,        Univ. of Southern Denmark,    Denmark     (SOPPA)
  Janus J. Eriksen,         Aarhus University,            Denmark     (Polarizable embedding model, TDA)
  Rasmus Faber,             University of Copenhagen,     Denmark     (Vib.avg. NMR with SOPPA, parallel AO-SOPPA)
  Berta Fernandez,          U. of Santiago de Compostela, Spain       (doublet spin, ESR in RESPONS)
  Lara Ferrighi,            Aarhus University,            Denmark     (PCM Cubic response)
  Heike Fliegl,             University of Oslo,           Norway      (CCSD(R12))
  Luca Frediani,            UiT The Arctic U. of Norway,  Norway      (PCM)
  Bin Gao,                  UiT The Arctic U. of Norway,  Norway      (Gen1Int library)
  Christof Haettig,         Ruhr-University Bochum,       Germany     (CC module)
  Kasper Hald,              Aarhus University,            Denmark     (CC module)
  Asger Halkier,            Aarhus University,            Denmark     (CC module)
  Frederik Beyer Hansen,    University of Copenhagen,     Denmark     (Parallel AO-SOPPA)
  Erik D. Hedegaard,        Univ. of Southern Denmark,    Denmark     (Polarizable embedding model, QM/MM)
  Hanne Heiberg,            University of Oslo,           Norway      (geometry analysis, selected one-electron integrals)
  Trygve Helgaker,          University of Oslo,           Norway      (DALTON; ABACUS, ERI, DFT modules, London, and much more)
  Alf Christian Hennum,     University of Oslo,           Norway      (Parity violation)
  Hinne Hettema,            University of Auckland,       New Zealand (quadratic response in RESPONS; SIRIUS supersymmetry)
  Eirik Hjertenaes,         NTNU,                         Norway      (Cholesky decomposition)
  Maria Francesca Iozzi,    University of Oslo,           Norway      (RPA)
  Brano Jansik              Technical Univ. of Ostrava    Czech Rep.  (DFT cubic response)
  Hans Joergen Aa. Jensen,  Univ. of Southern Denmark,    Denmark     (DALTON; SIRIUS, RESPONS, ABACUS modules, London, and much more)
  Dan Jonsson,              UiT The Arctic U. of Norway,  Norway      (cubic response in RESPONS module)
  Poul Joergensen,          Aarhus University,            Denmark     (RESPONS, ABACUS, and CC modules)
  Maciej Kaminski,          University of Warsaw,         Poland      (CPPh in RESPONS)
  Joanna Kauczor,           Linkoeping University,        Sweden      (Complex polarization propagator (CPP) module)
  Sheela Kirpekar,          Univ. of Southern Denmark,    Denmark     (Mass-velocity & Darwin integrals)
  Wim Klopper,              KIT Karlsruhe,                Germany     (R12 code in CC, SIRIUS, and ABACUS modules)
  Stefan Knecht,            ETH Zurich,                   Switzerland (Parallel CI and MCSCF)
  Rika Kobayashi,           Australian National Univ.,    Australia   (DIIS in CC, London in MCSCF)
  Henrik Koch,              NTNU,                         Norway      (CC module, Cholesky decomposition)
  Jacob Kongsted,           Univ. of Southern Denmark,    Denmark     (Polarizable embedding model, QM/MM)
  Andrea Ligabue,           University of Modena,         Italy       (CTOCD, AOSOPPA)
  Nanna H. List             Univ. of Southern Denmark,    Denmark     (Polarizable embedding model)
  Ola B. Lutnaes,           University of Oslo,           Norway      (DFT Hessian)
  Juan I. Melo,             University of Buenos Aires,   Argentina   (LRESC, Relativistic Effects on NMR Shieldings)
  Kurt V. Mikkelsen,        University of Copenhagen,     Denmark     (MC-SCRF and QM/MM)
  Rolf H. Myhre,            NTNU,                         Norway      (Cholesky, subsystems and ECC2)
  Christian Neiss,          Univ. Erlangen-Nuernberg,     Germany     (CCSD(R12))
  Christian B. Nielsen,     University of Copenhagen,     Denmark     (QM/MM)
  Patrick Norman,           Linkoeping University,        Sweden      (Cubic response and complex frequency response in RESPONS)
  Jeppe Olsen,              Aarhus University,            Denmark     (SIRIUS CI/density modules)
  Jogvan Magnus H. Olsen,   Univ. of Southern Denmark,    Denmark     (Polarizable embedding model, QM/MM)
  Anders Osted,             Copenhagen University,        Denmark     (QM/MM)
  Martin J. Packer,         University of Sheffield,      UK          (SOPPA)
  Filip Pawlowski,          Kazimierz Wielki University,  Poland      (CC3)
  Morten N. Pedersen,       Univ. of Southern Denmark,    Denmark     (Polarizable embedding model)
  Thomas B. Pedersen,       University of Oslo,           Norway      (Cholesky decomposition)
  Patricio F. Provasi,      University of Northeastern,   Argentina   (Analysis of coupling constants in localized orbitals)
  Zilvinas Rinkevicius,     KTH Stockholm,                Sweden      (open-shell DFT, ESR)
  Elias Rudberg,            KTH Stockholm,                Sweden      (DFT grid and basis info)
  Torgeir A. Ruden,         University of Oslo,           Norway      (Numerical derivatives in ABACUS)
  Kenneth Ruud,             UiT The Arctic U. of Norway,  Norway      (DALTON; ABACUS magnetic properties and much more)
  Pawel Salek,              KTH Stockholm,                Sweden      (DALTON; DFT code)
  Claire C. M. Samson       University of Karlsruhe       Germany     (Boys localization, r12 integrals in ERI)
  Alfredo Sanchez de Meras, University of Valencia,       Spain       (CC module, Cholesky decomposition)
  Trond Saue,               Paul Sabatier University,     France      (direct Fock matrix construction)
  Stephan P. A. Sauer,      University of Copenhagen,     Denmark     (SOPPA(CCSD), SOPPA prop., AOSOPPA, vibrational g-factors)
  Bernd Schimmelpfennig,    Forschungszentrum Karlsruhe,  Germany     (AMFI module)
  Kristian Sneskov,         Aarhus University,            Denmark     (Polarizable embedding model, QM/MM)
  Arnfinn H. Steindal,      UiT The Arctic U. of Norway,  Norway      (parallel QM/MM, Polarizable embedding model)
  Casper Steinmann,         Univ. of Southern Denmark,    Denmark     (QFIT, Polarizable embedding model)
  K. O. Sylvester-Hvid,     University of Copenhagen,     Denmark     (MC-SCRF)
  Peter R. Taylor,          VLSCI/Univ. of Melbourne,     Australia   (Symmetry handling ABACUS, integral transformation)
  Andrew M. Teale,          University of Nottingham,     England     (DFT-AC, DFT-D)
  David P. Tew,             University of Bristol,        England     (CCSD(R12))
  Olav Vahtras,             KTH Stockholm,                Sweden      (triplet response, spin-orbit, ESR, TDDFT, open-shell DFT)
  David J. Wilson,          La Trobe University,          Australia   (DFT Hessian and DFT magnetizabilities)
  Hans Agren,               KTH Stockholm,                Sweden      (SIRIUS module, RESPONS, MC-SCRF solvation model)
 --------------------------------------------------------------------------------

     Date and time (Linux)  : Tue Dec 14 17:35:51 2021
     Host name              : node653                                 

 * Work memory size             :   512000000 =  3.815 gigabytes.

 * Directories for basis set searches:
   1) /home/magbuk/bin/UCPH-KVM/test_systems
   2) /home/sauer/source/DALTON-2016/build/basis


Compilation information
-----------------------

 Who compiled             | sauer
 Host                     | sunray
 System                   | Linux-3.16.0-4-amd64
 CMake generator          | Unix Makefiles
 Processor                | x86_64
 64-bit integers          | OFF
 MPI                      | OFF
 Fortran compiler         | /opt/intel/bin/ifort
 Fortran compiler version | ifort (IFORT) 13.0.1 20121010
 C compiler               | /opt/intel/bin/icc
 C compiler version       | icc (ICC) 13.0.1 20121010
 C++ compiler             | /opt/intel/bin/icpc
 C++ compiler version     | icpc (ICC) 13.0.1 20121010
 BLAS                     | /opt/intel/mkl/lib/intel64/libmkl_intel_lp64.so;/o
                          | pt/intel/mkl/lib/intel64/libmkl_sequential.so;/opt
                          | /intel/mkl/lib/intel64/libmkl_core.so;/usr/lib/x86
                          | _64-linux-gnu/libpthread.so;/usr/lib/x86_64-linux-
                          | gnu/libm.so
 LAPACK                   | /opt/intel/mkl/lib/intel64/libmkl_lapack95_lp64.a;
                          | /opt/intel/mkl/lib/intel64/libmkl_intel_lp64.so
 Static linking           | OFF
 Last Git revision        | a10ef0cf7cc62686ecfeaafb7364c9b014fdc003
 Configuration time       | 2016-10-13 16:30:54.213896


   Content of the .dal input file
 ----------------------------------

**DALTON INPUT                                    
.OPTIMIZE                                         
**WAVE FUNCTIONS                                  
.HF                                               
**PROPERTIES                                      
.VIBANA                                           
**END OF DALTON                                   


   Content of the .mol file
 ----------------------------

ATOMBASIS                                                                      
./Ethanol.xyz                                                                  
Hej Magnus                                                                     
Atomtypes=3 Charge=0 NoSymmetry Angstrom                                       
  6.0000     2 Bas=cc-pVDZ Aux=cc-pVDZ-RI                                      
C     1.011100000         0.077080000        -0.059530000                      
C     2.525690000         0.079850000        -0.066400000                      
  8.0000     1 Bas=cc-pVDZ Aux=cc-pVDZ-RI                                      
O     3.005810000         1.243650000        -0.723650000                      
  1.0000     6 Bas=cc-pVDZ Aux=cc-pVDZ-RI                                      
H     0.625160000        -0.805710000         0.457800000                      
H     0.619370000         0.085560000        -1.081990000                      
H     0.626450000         0.974410000         0.436200000                      
H     2.917510000        -0.801850000        -0.582510000                      
H     2.913160000         0.081420000         0.956540000                      
H     2.664530000         1.228020000        -1.634070000                      


       *******************************************************************
       *********** Output from DALTON general input processing ***********
       *******************************************************************

 --------------------------------------------------------------------------------
   Overall default print level:    0
   Print level for DALTON.STAT:    1

    "Old" integral transformation used (limited to max 255 basis functions)
 --------------------------------------------------------------------------------


 Chosen parameters for *OPTIMI :
 -------------------------------

 Default 1st order method will be used:   BFGS update.
 Optimization will be performed in redundant internal coordinates (by default).
 Model Hessian will be used as initial Hessian.
 The model Hessian parameters of Roland Lindh will be used.
 
 
 Trust region method will be used to control step (default).
 
 Convergence threshold for gradient set to :      1.00D-04
 Convergence threshold for energy set to   :      1.00D-06
 Convergence threshold for step set to     :      1.00D-04
 Number of convergence criteria set to     :   2


              >>>>>>>>>>>>>>>>>>>>>>>>>>>>>>>>>>>>>>>>>>>>>>>>>>>>>
              >>>>>>>>>> 1st Order Geometry Optimization >>>>>>>>>>
              >>>>>>>>>>>>>>>>>>>>>>>>>>>>>>>>>>>>>>>>>>>>>>>>>>>>>


 Reading .mol file to determine number of atoms for parallel runs.


   ****************************************************************************
   *************** Output of molecule and basis set information ***************
   ****************************************************************************


    The two title cards from your ".mol" input:
    ------------------------------------------------------------------------
 1: ./Ethanol.xyz                                                           
 2: Hej Magnus                                                              
    ------------------------------------------------------------------------

  Coordinates are entered in Angstrom and converted to atomic units.
          - Conversion factor : 1 bohr = 0.52917721 A

  Atomic type no.    1
  --------------------
  Nuclear charge:   6.00000
  Number of symmetry independent centers:    2
  Number of basis sets to read;    2
  The basis set is "cc-pVDZ Aux=cc-pVDZ-RI" from the basis set library.
  Basis set file used for this atomic type with Z =   6 :
     "/home/sauer/source/DALTON-2016/build/basis/cc-pVDZ"

  Atomic type no.    2
  --------------------
  Nuclear charge:   8.00000
  Number of symmetry independent centers:    1
  Number of basis sets to read;    2
  The basis set is "cc-pVDZ Aux=cc-pVDZ-RI" from the basis set library.
  Basis set file used for this atomic type with Z =   8 :
     "/home/sauer/source/DALTON-2016/build/basis/cc-pVDZ"

  Atomic type no.    3
  --------------------
  Nuclear charge:   1.00000
  Number of symmetry independent centers:    6
  Number of basis sets to read;    2
  The basis set is "cc-pVDZ Aux=cc-pVDZ-RI" from the basis set library.
  Basis set file used for this atomic type with Z =   1 :
     "/home/sauer/source/DALTON-2016/build/basis/cc-pVDZ"


                         SYMGRP: Point group information
                         -------------------------------

@    Point group: C1 


                                 Isotopic Masses
                                 ---------------

                           C          12.000000
                           C          12.000000
                           O          15.994915
                           H           1.007825
                           H           1.007825
                           H           1.007825
                           H           1.007825
                           H           1.007825
                           H           1.007825

                       Total mass:    46.041865 amu
                       Natural abundance:  97.490 %

 Center-of-mass coordinates (a.u.):    4.144032    0.925249   -0.596990


  Atoms and basis sets
  --------------------

  Number of atom types :    3
  Total number of atoms:    9

  label    atoms   charge   prim   cont     basis
  ----------------------------------------------------------------------
  C           2    6.0000    26    14      [9s4p1d|3s2p1d]                                    
  O           1    8.0000    26    14      [9s4p1d|3s2p1d]                                    
  H           6    1.0000     7     5      [4s1p|2s1p]                                        
  ----------------------------------------------------------------------
  total:      9   26.0000   120    72
  ----------------------------------------------------------------------
  Spherical harmonic basis used.

  Threshold for neglecting AO integrals:  1.00D-12


  Cartesian Coordinates (a.u.)
  ----------------------------

  Total number of coordinates:   27
  C       :     1  x   1.9107020850    2  y   0.1456600897    3  z  -0.1124953962
  C       :     4  x   4.7728623766    5  y   0.1508946311    6  z  -0.1254778147
  O       :     7  x   5.6801576838    8  y   2.3501578953    9  z  -1.3675003104
  H       :    10  x   1.1813811843   11  y  -1.5225712362   12  z   0.8651166200
  H       :    13  x   1.1704396700   14  y   0.1616849673   15  z  -2.0446647700
  H       :    16  x   1.1838189310   17  y   1.8413680335   18  z   0.8242985357
  H       :    19  x   5.5132948669   20  y  -1.5152768933   21  z  -1.1007843651
  H       :    22  x   5.5050745583   23  y   0.1538615011   24  z   1.8075986276
  H       :    25  x   5.0352319518   26  y   2.3206214760   27  z  -3.0879447691


   Interatomic separations (in Angstrom):
   --------------------------------------

            C           C           O           H           H           H     
            ------      ------      ------      ------      ------      ------
 C     :    0.000000
 C     :    1.514608    0.000000
 O     :    2.404331    1.420184    0.000000
 H     :    1.093571    2.161253    3.356068    0.000000
 H     :    1.094965    2.159980    2.676691    1.779143    0.000000
 H     :    1.094945    2.158693    2.660657    1.780252    1.759263    0.000000
 H     :    2.163429    1.094206    2.052264    2.517365    2.513648    3.072755
 H     :    2.156444    1.093865    2.045092    2.504134    3.068728    2.509428
 H     :    2.556887    1.948117    0.972410    3.559636    2.406800    2.916180

            H           H           H     
            ------      ------      ------
 H     :    0.000000
 H     :    1.774503    0.000000
 H     :    2.300033    2.843900    0.000000


  Max    interatomic separation is    3.5596 Angstrom (    6.7267 Bohr)
  between atoms    9 and    4, "H     " and "H     ".

  Min HX interatomic separation is    0.9724 Angstrom (    1.8376 Bohr)

  Min YX interatomic separation is    1.4202 Angstrom (    2.6838 Bohr)


  Bond distances (Angstrom):
  --------------------------

                  atom 1     atom 2       distance
                  ------     ------       --------
  bond distance:  C          C            1.514608
  bond distance:  O          C            1.420184
  bond distance:  H          C            1.093571
  bond distance:  H          C            1.094965
  bond distance:  H          C            1.094945
  bond distance:  H          C            1.094206
  bond distance:  H          C            1.093865
  bond distance:  H          O            0.972410


  Bond angles (degrees):
  ----------------------

                  atom 1     atom 2     atom 3         angle
                  ------     ------     ------         -----
  bond angle:     C          C          H            110.888
  bond angle:     C          C          H            110.702
  bond angle:     C          C          H            110.600
  bond angle:     H          C          H            108.768
  bond angle:     H          C          H            108.869
  bond angle:     H          C          H            106.902
  bond angle:     C          C          O            109.978
  bond angle:     C          C          H            111.023
  bond angle:     C          C          H            110.486
  bond angle:     O          C          H            108.722
  bond angle:     O          C          H            108.171
  bond angle:     H          C          H            108.385
  bond angle:     C          O          H            107.546




 Principal moments of inertia (u*A**2) and principal axes
 --------------------------------------------------------

   IA      15.174894          0.828122    0.477066   -0.294314
   IB      52.969915         -0.559862    0.677977   -0.476342
   IC      60.728626         -0.027709    0.559245    0.828539


 Rotational constants
 --------------------

               A                   B                   C

          33303.6263           9540.8687           8321.9239 MHz
            1.110889            0.318249            0.277590 cm-1


@  Nuclear repulsion energy :   82.024065349357 Hartree


                     .---------------------------------------.
                     | Starting in Integral Section (HERMIT) |
                     `---------------------------------------'



 ***************************************************************************************
 ****************** Output from **INTEGRALS input processing (HERMIT) ******************
 ***************************************************************************************


 - Using defaults, no **INTEGRALS input found

 Default print level:        1

 * Nuclear model: Point charge

 Calculation of one- and two-electron Hamiltonian integrals.

 Center of mass  (bohr):      4.144031521145      0.925248919173     -0.596989762531
 Operator center (bohr):      0.000000000000      0.000000000000      0.000000000000
 Gauge origin    (bohr):      0.000000000000      0.000000000000      0.000000000000
 Dipole origin   (bohr):      0.000000000000      0.000000000000      0.000000000000


     ************************************************************************
     ************************** Output from HERINT **************************
     ************************************************************************


 Threshold for neglecting two-electron integrals:  1.00D-12
 HERMIT - Number of two-electron integrals written:     3438821 ( 99.5% )
 HERMIT - Megabytes written:                             39.380

  Time used in TWOINT     is       1.65 seconds
  Total CPU  time used in HERMIT:   1.72 seconds
  Total wall time used in HERMIT:   1.71 seconds


                        .----------------------------------.
                        | End of Integral Section (HERMIT) |
                        `----------------------------------'



                   .--------------------------------------------.
                   | Starting in Wave Function Section (SIRIUS) |
                   `--------------------------------------------'


 *** Output from Huckel module :

     Using EWMO model:          T
     Using EHT  model:          F
     Number of Huckel orbitals each symmetry:   21

 EWMO - Energy Weighted Maximum Overlap - is a Huckel type method,
        which normally is better than Extended Huckel Theory.
 Reference: Linderberg and Ohrn, Propagators in Quantum Chemistry (Wiley, 1973)

 Huckel EWMO eigenvalues for symmetry :  1
          -20.684732     -11.354120     -11.348050      -1.855220      -1.404282
           -1.089292      -0.891713      -0.742681      -0.674745      -0.612968
           -0.565324      -0.493247      -0.468582      -0.233923      -0.176539
           -0.133896      -0.127474      -0.126197      -0.117270      -0.112503
           -0.109542

 **********************************************************************
 *SIRIUS* a direct, restricted step, second order MCSCF program       *
 **********************************************************************

 
     Date and time (Linux)  : Tue Dec 14 17:35:53 2021
     Host name              : node653                                 

 Title lines from ".mol" input file:
     ./Ethanol.xyz                                                           
     Hej Magnus                                                              

 Print level on unit LUPRI =   2 is   0
 Print level on unit LUW4  =   2 is   5

@    Restricted, closed shell Hartree-Fock calculation.

 Initial molecular orbitals are obtained according to
 ".MOSTART EWMO  " input option

     Wave function specification
     ============================
@    Wave function type        --- HF ---
@    Number of closed shell electrons          26
@    Number of electrons in active shells       0
@    Total charge of the molecule               0

@    Spin multiplicity and 2 M_S                1         0
@    Total number of symmetries                 1 (point group: C1 )
@    Reference state symmetry                   1 (irrep name : A  )

     Orbital specifications
     ======================
@    Abelian symmetry species          All |    1
@                                          |  A  
                                       --- |  ---
@    Occupied SCF orbitals              13 |   13
@    Secondary orbitals                 59 |   59
@    Total number of orbitals           72 |   72
@    Number of basis functions          72 |   72

     Optimization information
     ========================
@    Number of configurations                 1
@    Number of orbital rotations            767
     ------------------------------------------
@    Total number of variables              768

     Maximum number of Fock   iterations      0
     Maximum number of DIIS   iterations     60
     Maximum number of QC-SCF iterations     60
     Threshold for SCF convergence     1.00D-05


 ***********************************************
 ***** DIIS acceleration of SCF iterations *****
 ***********************************************

 C1-DIIS algorithm; max error vectors =    8

 Iter      Total energy        Error norm    Delta(E)  DIIS dim.
 -----------------------------------------------------------------------------
     (Precalculated two-electron integrals are transformed to P-supermatrix elements.
      Threshold for discarding integrals :  1.00D-12 )
  Time used in FORMSUP    is       0.23 seconds
@  1    -153.502311885        2.90182D+00   -1.54D+02    1
      Virial theorem: -V/T =      2.007708
@      MULPOP C       0.42; C       0.86; O      -0.68; H      -0.12; H      -0.14; H      -0.15; H      -0.21; H      -0.21; H       0.24; 
   1  Level shift: doubly occupied orbital energies shifted by -2.00D-01
 -----------------------------------------------------------------------------
@  2    -154.034448308        9.63368D-01   -5.32D-01    2
      Virial theorem: -V/T =      2.002208
@      MULPOP C      -0.17; C      -0.02; O      -0.20; H       0.06; H       0.06; H       0.07; H       0.04; H       0.05; H       0.10; 
   2  Level shift: doubly occupied orbital energies shifted by -1.00D-01
 -----------------------------------------------------------------------------
@  3    -154.087157029        2.13635D-01   -5.27D-02    3
      Virial theorem: -V/T =      2.000452
@      MULPOP C      -0.08; C       0.19; O      -0.39; H       0.03; H       0.02; H       0.04; H       0.01; H       0.03; H       0.15; 
   3  Level shift: doubly occupied orbital energies shifted by -2.50D-02
 -----------------------------------------------------------------------------
@  4    -154.090587823        7.20611D-02   -3.43D-03    4
      Virial theorem: -V/T =      2.001784
@      MULPOP C      -0.08; C       0.17; O      -0.38; H       0.03; H       0.02; H       0.04; H       0.01; H       0.03; H       0.15; 
   4  Level shift: doubly occupied orbital energies shifted by -1.25D-02
 -----------------------------------------------------------------------------
@  5    -154.090924577        1.52979D-02   -3.37D-04    5
      Virial theorem: -V/T =      2.000872
@      MULPOP C      -0.09; C       0.17; O      -0.39; H       0.03; H       0.02; H       0.04; H       0.02; H       0.04; H       0.16; 
 -----------------------------------------------------------------------------
@  6    -154.090950513        3.34907D-03   -2.59D-05    6
      Virial theorem: -V/T =      2.000948
@      MULPOP C      -0.08; C       0.17; O      -0.40; H       0.03; H       0.02; H       0.04; H       0.02; H       0.04; H       0.16; 
 -----------------------------------------------------------------------------
@  7    -154.090952305        8.81120D-04   -1.79D-06    7
      Virial theorem: -V/T =      2.000935
@      MULPOP C      -0.08; C       0.17; O      -0.40; H       0.03; H       0.02; H       0.04; H       0.01; H       0.04; H       0.16; 
 -----------------------------------------------------------------------------
@  8    -154.090952438        2.54841D-04   -1.33D-07    8
      Virial theorem: -V/T =      2.000937
@      MULPOP C      -0.08; C       0.17; O      -0.40; H       0.03; H       0.02; H       0.04; H       0.01; H       0.04; H       0.16; 
 -----------------------------------------------------------------------------
@  9    -154.090952448        7.66499D-05   -9.69D-09    8
      Virial theorem: -V/T =      2.000937
@      MULPOP C      -0.08; C       0.17; O      -0.40; H       0.03; H       0.02; H       0.04; H       0.01; H       0.04; H       0.16; 
 -----------------------------------------------------------------------------
@ 10    -154.090952449        2.25675D-05   -9.87D-10    8
      Virial theorem: -V/T =      2.000937
@      MULPOP C      -0.08; C       0.17; O      -0.40; H       0.03; H       0.02; H       0.04; H       0.01; H       0.04; H       0.16; 
 -----------------------------------------------------------------------------
@ 11    -154.090952449        6.20402D-06   -1.00D-10    8

@ *** DIIS converged in  11 iterations !
@     Converged SCF energy, gradient:   -154.090952448863    6.20D-06
    - total time used in SIRFCK :              0.00 seconds


 *** SCF orbital energy analysis ***

 Only the 20 lowest virtual orbital energies printed in each symmetry.

 Number of electrons :   26
 Orbital occupations :   13

 Sym       Hartree-Fock orbital energies

1 A     -20.54718911   -11.27603475   -11.22386099    -1.34952277    -1.01002734
         -0.84361078    -0.67884003    -0.62075236    -0.60260980    -0.53878675
         -0.52299686    -0.47559823    -0.43514869     0.17864010     0.21714575
          0.23380030     0.25532044     0.26685193     0.28647305     0.38145211
          0.40069587     0.59603102     0.61502507     0.66562188     0.72939347
          0.75018323     0.81035303     0.85028416     0.88181402     0.88686081
          0.89711004     0.91038117     0.92954870

    E(LUMO) :     0.17864010 au (symmetry 1)
  - E(HOMO) :    -0.43514869 au (symmetry 1)
  ------------------------------------------
    gap     :     0.61378879 au

 --- Writing SIRIFC interface file

 CPU and wall time for SCF :       0.416       0.418


                       .-----------------------------------.
                       | --- Final results from SIRIUS --- |
                       `-----------------------------------'


@    Spin multiplicity:           1
@    Spatial symmetry:            1 ( irrep  A   in C1  )
@    Total charge of molecule:    0

@    Final HF energy:            -154.090952448863                 
@    Nuclear repulsion:            82.024065349357
@    Electronic energy:          -236.115017798221

@    Final gradient norm:           0.000006204017

 
     Date and time (Linux)  : Tue Dec 14 17:35:54 2021
     Host name              : node653                                 

File label for MO orbitals:  14Dec21   FOCKDIIS

 (Only coefficients > 0.0100 are printed.)

 Molecular orbitals for symmetry species 1  (A  )
 ------------------------------------------------

    Orbital         4        5        6        7        8        9       10
   1 C   :1s     0.0034   0.0205  -0.0130   0.0012  -0.0032   0.0028  -0.0003
   2 C   :1s    -0.0629  -0.6112   0.4162  -0.0569   0.0008  -0.0441  -0.0110
   3 C   :1s     0.0074   0.1774  -0.1077   0.0018   0.0218   0.0061  -0.0084
   4 C   :2px   -0.0381  -0.0950  -0.1712   0.1041  -0.0695   0.3468  -0.2480
   5 C   :2py   -0.0083   0.0066   0.0141  -0.1447  -0.1929   0.2122   0.4500
   6 C   :2pz    0.0063  -0.0025  -0.0174  -0.1154   0.3099   0.1295   0.1955
   7 C   :2px    0.0033   0.0336   0.0349  -0.0235   0.0217  -0.0598   0.0252
   8 C   :2py   -0.0029   0.0034   0.0006   0.0332   0.0333  -0.0208  -0.0636
   9 C   :2pz   -0.0022  -0.0029   0.0013   0.0262  -0.0590  -0.0241  -0.0107
  10 C   :3d2-  -0.0018   0.0017   0.0008  -0.0066  -0.0002  -0.0029  -0.0109
  11 C   :3d1-  -0.0014  -0.0004  -0.0011  -0.0036  -0.0070   0.0054   0.0157
  12 C   :3d0    0.0030   0.0061   0.0068  -0.0008  -0.0065  -0.0118  -0.0001
  14 C   :3d2+  -0.0068  -0.0120  -0.0120   0.0065  -0.0080   0.0140  -0.0140
  15 C   :1s     0.0087   0.0128   0.0057  -0.0030  -0.0016   0.0013  -0.0008
  16 C   :1s    -0.2853  -0.4723  -0.5342   0.0997  -0.0328   0.1179  -0.0036
  17 C   :1s     0.1342   0.1080   0.1629  -0.0124   0.0074  -0.0258  -0.0082
  18 C   :2px   -0.0368   0.1530  -0.1836  -0.0584   0.0768  -0.3457   0.2788
  19 C   :2py   -0.1238   0.0506   0.0340  -0.3687  -0.2428   0.0956  -0.0244
  20 C   :2pz    0.0782  -0.0359  -0.0464  -0.1984   0.3905   0.2221   0.0037
  21 C   :2px    0.0137  -0.0236   0.0432   0.0009   0.0039   0.0607  -0.0624
  22 C   :2py    0.0515  -0.0137   0.0018   0.0691   0.0590  -0.0343  -0.0135
  23 C   :2pz   -0.0227   0.0140   0.0066   0.0265  -0.0640  -0.0425  -0.0122
  24 C   :3d2-  -0.0115   0.0012  -0.0056  -0.0154  -0.0030  -0.0203  -0.0136
  25 C   :3d1-   0.0226  -0.0033  -0.0008   0.0091   0.0206  -0.0025  -0.0007
  26 C   :3d0    0.0031   0.0093  -0.0039   0.0129   0.0111   0.0050   0.0153
  27 C   :3d1+   0.0081  -0.0023   0.0014   0.0006   0.0010   0.0114  -0.0119
  28 C   :3d2+   0.0118  -0.0174   0.0124   0.0093   0.0128   0.0099  -0.0011
  29 O   :1s     0.0106  -0.0006   0.0014  -0.0002  -0.0001  -0.0003   0.0001
  30 O   :1s    -0.8249   0.2367   0.1356  -0.1570   0.1114  -0.1092  -0.1120
  31 O   :1s     0.0556  -0.0018  -0.0198  -0.0711   0.0333  -0.0445  -0.0519
  32 O   :2px    0.0684   0.0369  -0.0280  -0.0620   0.2805  -0.4269   0.1152
  33 O   :2py    0.0887   0.0751   0.1913  -0.0493   0.3380   0.2044  -0.3025
  34 O   :2pz    0.0302  -0.0988  -0.2269  -0.5264  -0.1812  -0.1760  -0.2630
  35 O   :2px   -0.0213  -0.0006   0.0144   0.0123   0.0033  -0.0001   0.0053
  36 O   :2py   -0.0133  -0.0031  -0.0068  -0.0117  -0.0071  -0.0089  -0.0205
  37 O   :2pz   -0.0337   0.0252   0.0384   0.0572   0.0212   0.0283   0.0061
  38 O   :3d2-  -0.0053  -0.0044  -0.0039   0.0007  -0.0128   0.0055  -0.0002
  39 O   :3d1-   0.0042   0.0033   0.0072   0.0115   0.0018   0.0010   0.0041
  40 O   :3d0   -0.0006   0.0039   0.0060   0.0046   0.0114   0.0049   0.0023
  41 O   :3d1+  -0.0003   0.0031   0.0052   0.0110   0.0028   0.0046   0.0043
  42 O   :3d2+   0.0036   0.0023   0.0083  -0.0006   0.0040   0.0121  -0.0079
  43 H   :1s    -0.0123  -0.2280   0.2224  -0.0079   0.3153  -0.2548  -0.2043
  44 H   :1s     0.0035   0.1049  -0.0826  -0.0004  -0.0954   0.0767   0.0461
  46 H   :2py   -0.0011  -0.0159   0.0134  -0.0030   0.0112  -0.0074   0.0001
  48 H   :1s    -0.0170  -0.2215   0.2525   0.0409  -0.2489  -0.2645  -0.1001
  49 H   :1s     0.0083   0.0950  -0.0995  -0.0090   0.0697   0.0843   0.0349
  52 H   :2pz   -0.0014  -0.0172   0.0169   0.0003  -0.0076  -0.0127  -0.0007
  53 H   :1s    -0.0133  -0.2199   0.2359  -0.2136   0.0129   0.0795   0.5627
  54 H   :1s     0.0071   0.0996  -0.0939   0.0689   0.0019  -0.0306  -0.1625
  56 H   :2py    0.0010   0.0152  -0.0147   0.0090  -0.0052   0.0004  -0.0159
  58 H   :1s    -0.0669  -0.1666  -0.2870   0.3741   0.0226  -0.2235   0.1155
  59 H   :1s     0.0326   0.0765   0.1147  -0.1327  -0.0005   0.0549  -0.0237
  61 H   :2py   -0.0082  -0.0101  -0.0153   0.0118  -0.0021  -0.0081   0.0029
  62 H   :2pz   -0.0028  -0.0075  -0.0108   0.0082   0.0064  -0.0037   0.0035
  63 H   :1s    -0.0656  -0.1724  -0.3122  -0.1159   0.3474   0.1515   0.1143
  64 H   :1s     0.0280   0.0755   0.1265   0.0466  -0.1190  -0.0517  -0.0276
  67 H   :2pz    0.0073   0.0128   0.0200   0.0038  -0.0131  -0.0031  -0.0059
  68 H   :1s    -0.2856   0.1492   0.2521   0.4393   0.1339   0.2725   0.1691
  69 H   :1s     0.1378  -0.0616  -0.0995  -0.1622  -0.0208  -0.0959  -0.0586
  70 H   :2px   -0.0114   0.0063   0.0068   0.0120   0.0129  -0.0044   0.0096
  72 H   :2pz   -0.0341   0.0141   0.0207   0.0291   0.0051   0.0194   0.0065

    Orbital        11       12       13       14       15       16       17
   1 C   :1s    -0.0017  -0.0002  -0.0012  -0.0551   0.0303   0.0668   0.0186
   2 C   :1s    -0.0204  -0.0615  -0.1178   0.0776  -0.0424  -0.0955  -0.0193
   3 C   :1s     0.0109  -0.0176  -0.0395   1.2163  -0.8489  -1.6848  -0.5297
   4 C   :2px   -0.0463  -0.2493  -0.3449  -0.1664   0.0746   0.0744   0.0273
   5 C   :2py    0.2326  -0.2120  -0.0102  -0.0214   0.0400  -0.0944   0.2735
   6 C   :2pz   -0.4463  -0.1644   0.0903  -0.0745  -0.2042   0.0254   0.1236
   7 C   :2px    0.0159   0.0317   0.0529  -0.3453   0.1217   0.0581  -0.0159
   8 C   :2py   -0.0382   0.0547   0.0273   0.0446   0.0764  -0.1693   0.6435
   9 C   :2pz    0.0572   0.0348  -0.0502  -0.1686  -0.3530   0.0769   0.1627
  10 C   :3d2-  -0.0096   0.0147  -0.0045  -0.0047  -0.0084  -0.0043  -0.0089
  11 C   :3d1-   0.0082  -0.0094  -0.0006  -0.0002   0.0079  -0.0033   0.0155
  12 C   :3d0    0.0161   0.0131   0.0023   0.0062   0.0112  -0.0069  -0.0049
  13 C   :3d1+   0.0174   0.0149  -0.0068   0.0072   0.0111   0.0015   0.0095
  14 C   :3d2+   0.0065  -0.0049  -0.0152  -0.0022   0.0069   0.0093   0.0001
  15 C   :1s    -0.0014   0.0013  -0.0016  -0.0468   0.0181  -0.0593  -0.0069
  16 C   :1s     0.0044   0.0051  -0.0297   0.0044  -0.1408   0.0838  -0.0280
  17 C   :1s     0.0009  -0.0376  -0.0140   1.0627  -0.6729   1.5739   0.1700
  18 C   :2px    0.0662   0.2553   0.3124   0.0812  -0.1405   0.0187  -0.0633
  19 C   :2py   -0.1819   0.2705  -0.1693  -0.1642  -0.0498  -0.2113   0.0956
  20 C   :2pz    0.2409   0.2966  -0.1262   0.0299  -0.1489   0.0366   0.2930
  21 C   :2px    0.0038  -0.0671  -0.0723   0.1486  -0.2794   0.0541  -0.1218
  22 C   :2py    0.0485  -0.0954   0.0122  -0.1849   0.0406  -0.4041   0.1866
  23 C   :2pz   -0.0328  -0.0538   0.0525  -0.0336  -0.4797   0.0380   0.6587
  24 C   :3d2-  -0.0156   0.0096  -0.0189  -0.0022   0.0038   0.0010  -0.0017
  25 C   :3d1-   0.0222  -0.0221   0.0082  -0.0028  -0.0118   0.0068  -0.0118
  26 C   :3d0    0.0064   0.0271  -0.0016  -0.0002  -0.0100   0.0063   0.0069
  27 C   :3d1+   0.0250   0.0146   0.0052  -0.0003  -0.0061  -0.0032   0.0001
  28 C   :3d2+   0.0081  -0.0068  -0.0367  -0.0053  -0.0052  -0.0068   0.0052
  29 O   :1s     0.0007  -0.0005  -0.0026  -0.0156  -0.0220  -0.0048  -0.0202
  30 O   :1s     0.0544  -0.1461  -0.0092   0.0957   0.0918   0.0409   0.0705
  31 O   :1s     0.0209  -0.0666   0.0294   0.3196   0.4345   0.1167   0.4133
  32 O   :2px    0.1673  -0.3088  -0.6199  -0.1059  -0.0413   0.0268  -0.0244
  33 O   :2py    0.3836  -0.3153   0.3501   0.0239  -0.0585  -0.0167  -0.0434
  34 O   :2pz   -0.0062  -0.1904   0.2246  -0.1724  -0.1701  -0.0287  -0.1197
  35 O   :2px    0.0042  -0.0214  -0.0666  -0.0647  -0.0025  -0.0060  -0.0222
  36 O   :2py    0.0090  -0.0342   0.0279   0.0802   0.0261   0.0339  -0.0563
  37 O   :2pz    0.0088   0.0130   0.0258  -0.1739  -0.1587  -0.0212  -0.1729
  43 H   :1s    -0.4328   0.1799   0.1494  -0.0427  -0.0676  -0.0437  -0.0530
  44 H   :1s     0.1030  -0.0301   0.0001  -0.5202   0.8809   0.3406   0.9749
  45 H   :2px   -0.0101  -0.0016  -0.0050  -0.0008   0.0096   0.0011   0.0097
  46 H   :2py   -0.0128   0.0020   0.0069  -0.0048   0.0130   0.0051   0.0099
  47 H   :2pz    0.0013  -0.0086  -0.0014   0.0022  -0.0077  -0.0026  -0.0101
  48 H   :1s     0.4740   0.2621  -0.0341   0.0052   0.0282   0.0198   0.0607
  49 H   :1s    -0.1138  -0.0202   0.0060  -0.8583  -0.3730   0.8905   0.7577
  52 H   :2pz    0.0127   0.0071   0.0016  -0.0095  -0.0050   0.0142   0.0126
  53 H   :1s    -0.0031  -0.2346   0.1275  -0.0062   0.0477   0.0312  -0.0194
  54 H   :1s     0.0097   0.0252   0.0172  -0.4384   0.5969   1.0312  -1.0925
  56 H   :2py    0.0043   0.0044  -0.0054   0.0031  -0.0098  -0.0140   0.0119
  58 H   :1s     0.0745  -0.3191   0.3898  -0.0078  -0.0450  -0.0416   0.0267
  59 H   :1s    -0.0165   0.0464  -0.0693  -0.7294   0.1266  -1.2817   1.1236
  60 H   :2px    0.0000   0.0125  -0.0011   0.0058  -0.0014   0.0019  -0.0050
  61 H   :2py   -0.0002  -0.0053   0.0104  -0.0121  -0.0052  -0.0185   0.0127
  63 H   :1s     0.2699   0.4404  -0.0309   0.0276   0.0593  -0.0323  -0.0543
  64 H   :1s    -0.0661  -0.0874  -0.0029  -0.3581   1.2745  -0.7559  -1.1387
  65 H   :2px   -0.0052  -0.0036   0.0074   0.0008  -0.0116  -0.0012   0.0018
  67 H   :2pz   -0.0077  -0.0125  -0.0024   0.0044  -0.0176   0.0135   0.0160
  68 H   :1s    -0.0017   0.2623  -0.0033  -0.0488  -0.0989  -0.0248  -0.0572
  69 H   :1s     0.0290  -0.0859   0.0010  -0.6952  -0.9362  -0.1323  -0.6103
  70 H   :2px    0.0033  -0.0028  -0.0214  -0.0059  -0.0088  -0.0027  -0.0088
  71 H   :2py    0.0124  -0.0089   0.0116   0.0007  -0.0074   0.0009  -0.0041
  72 H   :2pz   -0.0022   0.0139   0.0070  -0.0099  -0.0145  -0.0022  -0.0165

    Orbital        18       19       20       21       22       23
   1 C   :1s     0.0004   0.0042  -0.0428   0.0625  -0.0056   0.0347
   2 C   :1s    -0.0112  -0.0046  -0.0632   0.0496  -0.0238   0.2074
   3 C   :1s     0.0539  -0.0834   0.7948  -1.6684  -0.0248   0.5295
   4 C   :2px    0.0287   0.0170  -0.0326  -0.3108  -0.0404   0.5683
   5 C   :2py    0.2918  -0.1696  -0.0347   0.0525   0.1711  -0.2214
   6 C   :2pz   -0.2424  -0.2814  -0.0238  -0.0590   0.2353   0.1501
   7 C   :2px    0.0955   0.0088   0.6296  -2.1445   0.1001  -0.7786
   8 C   :2py    0.9420  -0.6337   0.4508  -0.0269  -0.5597   0.7509
   9 C   :2pz   -0.6996  -1.0280  -0.3693  -0.0206  -0.7355  -0.5430
  10 C   :3d2-  -0.0027   0.0093  -0.0254  -0.0127  -0.0538   0.0192
  11 C   :3d1-   0.0075  -0.0062  -0.0011   0.0106   0.0677  -0.0517
  12 C   :3d0    0.0050   0.0079   0.0026   0.0040  -0.0845  -0.0854
  13 C   :3d1+  -0.0021   0.0123   0.0084   0.0041  -0.0889  -0.0273
  14 C   :3d2+   0.0092   0.0047  -0.0070   0.0036  -0.0593   0.0582
  15 C   :1s    -0.0071   0.0003   0.0505  -0.0436  -0.0135   0.0646
  16 C   :1s     0.1219   0.0257  -0.1273   0.0400  -0.0571   0.2489
  17 C   :1s     0.4065   0.0582  -1.4369   1.6421   0.0718  -0.1986
  18 C   :2px    0.0823   0.0111   0.0303  -0.4474   0.0636  -0.6110
  19 C   :2py   -0.0005   0.1634  -0.2907   0.0164  -0.0349   0.1003
  20 C   :2pz   -0.0987   0.2667   0.1481  -0.0062  -0.0100  -0.0899
  21 C   :2px    0.2728   0.0333   0.0735  -2.0296  -0.0747   1.3337
  22 C   :2py   -0.4322   0.5229  -1.3830  -0.0466   0.1109  -0.7241
  23 C   :2pz    0.0651   0.9386   0.7591  -0.0223  -0.1521   0.4918
  24 C   :3d2-  -0.0152   0.0101   0.0089   0.0075   0.0454  -0.0112
  25 C   :3d1-   0.0112  -0.0060  -0.0126   0.0022  -0.0305  -0.0412
  26 C   :3d0    0.0018   0.0097  -0.0028  -0.0039   0.0605  -0.0528
  27 C   :3d1+   0.0109   0.0157  -0.0008   0.0015   0.0867   0.0188
  28 C   :3d2+   0.0027   0.0075  -0.0107   0.0114   0.0246   0.0637
  29 O   :1s     0.0053   0.0015  -0.0463   0.0052   0.0072  -0.0242
  30 O   :1s    -0.1106  -0.0353   0.0816   0.0496   0.0386  -0.0700
  31 O   :1s    -0.1770  -0.0665   0.9481  -0.0222  -0.0555   0.3178
  32 O   :2px    0.0951   0.0103  -0.0852   0.0741   0.0014  -0.0217
  33 O   :2py    0.0815  -0.0513  -0.3124  -0.0665   0.0714   0.0003
  34 O   :2pz    0.0513  -0.0485   0.2576   0.1179   0.0438  -0.0141
  35 O   :2px    0.0280   0.0068  -0.2000   0.1919   0.0345  -0.2396
  36 O   :2py    0.0163  -0.0540  -0.4711  -0.1187   0.0278  -0.0290
  37 O   :2pz    0.1036  -0.0969   0.3980   0.1468   0.0214  -0.0323
  38 O   :3d2-   0.0004  -0.0025   0.0033   0.0103   0.0038   0.0014
  43 H   :1s     0.1292   0.0015  -0.0772  -0.2383  -0.0268   0.2459
  44 H   :1s     1.9005   0.0220   0.1896  -0.1543   0.0161  -0.1135
  45 H   :2px    0.0088  -0.0006   0.0304   0.0001  -0.0038   0.0143
  46 H   :2py    0.0186  -0.0019  -0.0001   0.0041  -0.0189  -0.0070
  47 H   :2pz   -0.0090  -0.0016   0.0011  -0.0021  -0.0345  -0.0013
  48 H   :1s    -0.0730  -0.0702   0.0874  -0.0969  -0.9865  -0.6908
  49 H   :1s    -1.1241  -1.4014  -0.4275  -0.5675   0.7694   0.3972
  50 H   :2px   -0.0040  -0.0105  -0.0123  -0.0014   0.0342  -0.0157
  51 H   :2py    0.0020   0.0011   0.0010   0.0011  -0.0230   0.0158
  52 H   :2pz   -0.0141  -0.0144  -0.0025  -0.0007   0.0301   0.0121
  53 H   :1s    -0.0500   0.0701   0.1265  -0.0716   1.0877  -0.4891
  54 H   :1s    -0.5951   1.5242  -0.0744  -0.3746  -0.7782   0.2522
  55 H   :2px   -0.0046   0.0123  -0.0197  -0.0063  -0.0292  -0.0209
  56 H   :2py    0.0047  -0.0137  -0.0018   0.0003   0.0351   0.0068
  57 H   :2pz    0.0038  -0.0082   0.0014  -0.0001   0.0019  -0.0180
  58 H   :1s    -0.0203  -0.0247  -0.1861   0.0309  -0.5391  -0.4875
  59 H   :1s    -0.8041   1.2401  -0.1588   0.4238   0.4265   0.2145
  60 H   :2px    0.0064  -0.0117  -0.0025  -0.0071  -0.0670   0.0198
  61 H   :2py   -0.0044   0.0138  -0.0019   0.0018   0.0288  -0.0020
  62 H   :2pz   -0.0088   0.0035   0.0104  -0.0050   0.0037   0.0169
  63 H   :1s    -0.0127   0.0149  -0.1613   0.0938   0.6281  -0.3770
  64 H   :1s    -0.1772  -1.3771  -0.0066   0.4782  -0.4591   0.0861
  65 H   :2px    0.0062   0.0114   0.0015  -0.0046   0.0658   0.0332
  66 H   :2py    0.0067  -0.0011  -0.0097   0.0044  -0.0090  -0.0230
  67 H   :2pz    0.0005   0.0145  -0.0050   0.0006   0.0290   0.0052
  68 H   :1s     0.0279   0.0330  -0.0319   0.0069   0.0743  -0.1721
  69 H   :1s     0.5214   0.1107   0.7544   0.4543  -0.1989   0.1505
  70 H   :2px    0.0020   0.0058  -0.0082   0.0208  -0.0251  -0.0119
  71 H   :2py    0.0080   0.0002  -0.0020  -0.0018  -0.0264   0.0131

  Total CPU  time used in SIRIUS :   0.46 seconds
  Total wall time used in SIRIUS :   0.46 seconds

 
     Date and time (Linux)  : Tue Dec 14 17:35:54 2021
     Host name              : node653                                 


                     .---------------------------------------.
                     | End of Wave Function Section (SIRIUS) |
                     `---------------------------------------'


     Order of analytical energy-derivatives available:   2
     This will be the default.

 Center of mass dipole origin  :    4.144032    0.925249   -0.596990

 Center of mass gauge origin   :    4.144032    0.925249   -0.596990


                 .------------------------------------------------.
                 | Starting in Static Property Section (ABACUS) - |
                 `------------------------------------------------'


 
     Date and time (Linux)  : Tue Dec 14 17:35:54 2021
     Host name              : node653                                 

 Largest deviation from tra-rot symmetry is in gradient element  5:  1.15E-06


   ***************************************************************************
   ************************ FINAL RESULTS from ABACUS ************************
   ***************************************************************************


 
     Date and time (Linux)  : Tue Dec 14 17:35:59 2021
     Host name              : node653                                 


                             Molecular geometry (au)
                             -----------------------

 C          1.9107020850            0.1456600897           -0.1124953962
 C          4.7728623766            0.1508946311           -0.1254778147
 O          5.6801576838            2.3501578953           -1.3675003104
 H          1.1813811843           -1.5225712362            0.8651166200
 H          1.1704396700            0.1616849673           -2.0446647700
 H          1.1838189310            1.8413680335            0.8242985357
 H          5.5132948669           -1.5152768933           -1.1007843651
 H          5.5050745583            0.1538615011            1.8075986276
 H          5.0352319518            2.3206214760           -3.0879447691





                        Molecular wave function and energy
                        ----------------------------------

     Spatial symmetry   1 ( A   )
     Spin multiplicity  1
     2 * M_S            0
     State number       1
     Total charge       0

     Total energy       -154.0909524489 au (Hartrees)
                         -4193.02811036 eV
                           -404565.7333 kJ/mol
                            -96693.5309 kcal/mol


                   Scalar Breit-Pauli relativistic corrections
                   -------------------------------------------

     Darwin correction:                          0.3201717301 au
     Mass-velocity correction:                  -0.4009433804 au

     Total relativistic correction:             -0.0807716503 au ( 0.0524%)
     Non-relativistic + relativistic energy:  -154.1717240992 au



      (Note that these corrections are NOT included in the results below.)


                             Molecular gradient (au)
                             -----------------------

 C          0.0034020830            0.0009471612           -0.0032683755
 C         -0.0003789706           -0.0118621524            0.0118012482
 O          0.0087358212            0.0072442613            0.0169105715
 H          0.0015371010           -0.0004922255            0.0011899978
 H         -0.0000212877            0.0025494641           -0.0003974201
 H         -0.0018537886            0.0022227030           -0.0004858412
 H          0.0008889616            0.0032462058           -0.0034913759
 H         -0.0015081679           -0.0027560718            0.0043401759
 H         -0.0108017520           -0.0010993458           -0.0265989806





                                  Dipole moment
                                  -------------

                 au               Debye          C m (/(10**-30)
              0.694085           1.764188           5.884697


                             Dipole moment components
                             ------------------------

                 au               Debye          C m (/(10**-30)

      x     -0.42504346        -1.08035264        -3.60366852
      y     -0.48588596        -1.23499885        -4.11951275
      z     -0.25496428        -0.64805452        -2.16167720


   Units:   1 a.u. =   2.54175 Debye 
            1 a.u. =   8.47835 (10**-30) C m (SI)




   Interatomic separations (in Angstrom):
   --------------------------------------

            C           C           O           H           H           H     
            ------      ------      ------      ------      ------      ------
 C     :    0.000000
 C     :    1.514608    0.000000
 O     :    2.404331    1.420184    0.000000
 H     :    1.093571    2.161253    3.356068    0.000000
 H     :    1.094965    2.159980    2.676691    1.779143    0.000000
 H     :    1.094945    2.158693    2.660657    1.780252    1.759263    0.000000
 H     :    2.163429    1.094206    2.052264    2.517365    2.513648    3.072755
 H     :    2.156444    1.093865    2.045092    2.504134    3.068728    2.509428
 H     :    2.556887    1.948117    0.972410    3.559636    2.406800    2.916180

            H           H           H     
            ------      ------      ------
 H     :    0.000000
 H     :    1.774503    0.000000
 H     :    2.300033    2.843900    0.000000


  Max    interatomic separation is    3.5596 Angstrom (    6.7267 Bohr)
  between atoms    9 and    4, "H     " and "H     ".

  Min HX interatomic separation is    0.9724 Angstrom (    1.8376 Bohr)

  Min YX interatomic separation is    1.4202 Angstrom (    2.6838 Bohr)


  Bond distances (Angstrom):
  --------------------------

                  atom 1     atom 2       distance
                  ------     ------       --------
  bond distance:  C          C            1.514608
  bond distance:  O          C            1.420184
  bond distance:  H          C            1.093571
  bond distance:  H          C            1.094965
  bond distance:  H          C            1.094945
  bond distance:  H          C            1.094206
  bond distance:  H          C            1.093865
  bond distance:  H          O            0.972410


  Bond angles (degrees):
  ----------------------

                  atom 1     atom 2     atom 3         angle
                  ------     ------     ------         -----
  bond angle:     C          C          H            110.888
  bond angle:     C          C          H            110.702
  bond angle:     C          C          H            110.600
  bond angle:     H          C          H            108.768
  bond angle:     H          C          H            108.869
  bond angle:     H          C          H            106.902
  bond angle:     C          C          O            109.978
  bond angle:     C          C          H            111.023
  bond angle:     C          C          H            110.486
  bond angle:     O          C          H            108.722
  bond angle:     O          C          H            108.171
  bond angle:     H          C          H            108.385
  bond angle:     C          O          H            107.546




 CPU time statistics for ABACUS
 ------------------------------

 TWOTEX     00:00:05      98 %

 TOTAL      00:00:05     100 %


  Total CPU  time used in ABACUS:   5.49 seconds
  Total wall time used in ABACUS:   5.49 seconds


                   .-------------------------------------------.
                   | End of Static Property Section (ABACUS) - |
                   `-------------------------------------------'


Building simple model Hessian by Roland Lindh ...


           :::::::::::::::::::::::::::::::::::::::::::::::::::::::::::
           ::::::::::::::: Optimization Control Center :::::::::::::::
           :::::::::::::::::::::::::::::::::::::::::::::::::::::::::::



                                Next geometry (au)
                                ------------------

 C          1.8813904623            0.1293353318           -0.1046206500
 C          4.7478709526            0.1746166818           -0.1797364342
 O          5.7339248073            2.3606760630           -1.3549927022
 H          1.1762983022           -1.5305423674            0.9032550899
 H          1.0970434529            0.0872230731           -2.0194343574
 H          1.1677831234            1.8228176963            0.8361028740
 H          5.4772016115           -1.5305963712           -1.0990846760
 H          5.5001974257            0.1965823889            1.7388404698
 H          5.1712531700            2.3762879680           -3.0621832558





                             Optimization information
                             ------------------------

 Iteration number               :       0
 End of optimization            :       F 
 Energy at this geometry is     :    -154.090952
 Norm of gradient               :       0.040186
 Norm of step                   :       0.284685
 Updated trust radius           :       0.500000
 Total Hessian index            :       0




 **************************************************************************************
 ****************** Output of molecule and basis set info suppressed ******************
 **************************************************************************************



                     .---------------------------------------.
                     | Starting in Integral Section (HERMIT) |
                     `---------------------------------------'



 ***************************************************************************************
 ****************** Output from **INTEGRALS input processing (HERMIT) ******************
 ***************************************************************************************


 - Using defaults, no **INTEGRALS input found

 Default print level:       -1

 * Nuclear model: Point charge

 Calculation of one- and two-electron Hamiltonian integrals.

 Center of mass  (bohr):      4.148568785786      0.930438740718     -0.603992237438
 Operator center (bohr):      0.000000000000      0.000000000000      0.000000000000
 Gauge origin    (bohr):      0.000000000000      0.000000000000      0.000000000000
 Dipole origin   (bohr):      0.000000000000      0.000000000000      0.000000000000

 Threshold for neglecting two-electron integrals:  1.00D-12
 HERMIT - Number of two-electron integrals written:     3438704 ( 99.5% )
 HERMIT - Megabytes written:                             39.380

  Time used in TWOINT     is       1.65 seconds
  Total CPU  time used in HERMIT:   1.71 seconds
  Total wall time used in HERMIT:   1.71 seconds


                        .----------------------------------.
                        | End of Integral Section (HERMIT) |
                        `----------------------------------'



                   .--------------------------------------------.
                   | Starting in Wave Function Section (SIRIUS) |
                   `--------------------------------------------'


 **********************************************************************
 *SIRIUS* a direct, restricted step, second order MCSCF program       *
 **********************************************************************

 (Wave function specification suppressed here, see output above for initial geometry.)


 ***********************************************
 ***** DIIS acceleration of SCF iterations *****
 ***********************************************

 C1-DIIS algorithm; max error vectors =    8

 Iter      Total energy        Error norm    Delta(E)  DIIS dim.
 -----------------------------------------------------------------------------
     (Precalculated two-electron integrals are transformed to P-supermatrix elements.
      Threshold for discarding integrals :  1.00D-12 )
  Time used in FORMSUP    is       0.22 seconds
@  1    -154.091187710        1.24626D-01   -2.35D-04    1
      Virial theorem: -V/T =      2.000762
@      MULPOP C      -0.08; C       0.17; O      -0.40; H       0.03; H       0.02; H       0.04; H       0.01; H       0.04; H       0.16; 
 -----------------------------------------------------------------------------
@  2    -154.092403307        3.09472D-02   -1.22D-03    2
      Virial theorem: -V/T =      2.000573
@      MULPOP C      -0.08; C       0.17; O      -0.38; H       0.03; H       0.02; H       0.04; H       0.01; H       0.04; H       0.15; 
 -----------------------------------------------------------------------------
@  3    -154.092517633        7.86546D-03   -1.14D-04    3
      Virial theorem: -V/T =      2.000687
@      MULPOP C      -0.08; C       0.17; O      -0.38; H       0.03; H       0.02; H       0.04; H       0.01; H       0.03; H       0.15; 
 -----------------------------------------------------------------------------
@  4    -154.092524119        3.42316D-03   -6.49D-06    4
      Virial theorem: -V/T =      2.000617
@      MULPOP C      -0.08; C       0.17; O      -0.38; H       0.03; H       0.02; H       0.04; H       0.01; H       0.03; H       0.15; 
 -----------------------------------------------------------------------------
@  5    -154.092525177        7.53898D-04   -1.06D-06    5
      Virial theorem: -V/T =      2.000644
@      MULPOP C      -0.08; C       0.17; O      -0.38; H       0.03; H       0.02; H       0.04; H       0.01; H       0.03; H       0.15; 
 -----------------------------------------------------------------------------
@  6    -154.092525256        2.27539D-04   -7.82D-08    6
      Virial theorem: -V/T =      2.000642
@      MULPOP C      -0.08; C       0.17; O      -0.38; H       0.03; H       0.02; H       0.04; H       0.01; H       0.03; H       0.15; 
 -----------------------------------------------------------------------------
@  7    -154.092525263        7.45362D-05   -7.34D-09    7
      Virial theorem: -V/T =      2.000642
@      MULPOP C      -0.08; C       0.17; O      -0.38; H       0.03; H       0.02; H       0.04; H       0.01; H       0.03; H       0.15; 
 -----------------------------------------------------------------------------
@  8    -154.092525264        1.86502D-05   -7.92D-10    8
      Virial theorem: -V/T =      2.000642
@      MULPOP C      -0.08; C       0.17; O      -0.38; H       0.03; H       0.02; H       0.04; H       0.01; H       0.03; H       0.15; 
 -----------------------------------------------------------------------------
@  9    -154.092525264        4.88580D-06   -6.07D-11    8

@ *** DIIS converged in   9 iterations !
@     Converged SCF energy, gradient:   -154.092525263841    4.89D-06
    - total time used in SIRFCK :              0.00 seconds


 *** SCF orbital energy analysis ***

 Only the 20 lowest virtual orbital energies printed in each symmetry.

 Number of electrons :   26
 Orbital occupations :   13

 Sym       Hartree-Fock orbital energies

1 A     -20.54767989   -11.27499153   -11.22394958    -1.35690999    -1.01113784
         -0.84604791    -0.68410941    -0.61958685    -0.60402173    -0.54111988
         -0.52236020    -0.47596054    -0.43659561     0.17961558     0.22061014
          0.23482965     0.25426071     0.26537285     0.28646346     0.38463306
          0.40502926     0.59742762     0.61985586     0.66236167     0.72924332
          0.75139940     0.80970473     0.85312106     0.88140565     0.88876666
          0.90027252     0.91596819     0.93227114

    E(LUMO) :     0.17961558 au (symmetry 1)
  - E(HOMO) :    -0.43659561 au (symmetry 1)
  ------------------------------------------
    gap     :     0.61621119 au

 --- Writing SIRIFC interface file

 CPU and wall time for SCF :       0.356       0.357


                       .-----------------------------------.
                       | --- Final results from SIRIUS --- |
                       `-----------------------------------'


@    Spin multiplicity:           1
@    Spatial symmetry:            1 ( irrep  A   in C1  )
@    Total charge of molecule:    0

@    Final HF energy:            -154.092525263841                 
@    Nuclear repulsion:            81.934407028236
@    Electronic energy:          -236.026932292077

@    Final gradient norm:           0.000004885799

 
     Date and time (Linux)  : Tue Dec 14 17:36:01 2021
     Host name              : node653                                 

  Total CPU  time used in SIRIUS :   0.37 seconds
  Total wall time used in SIRIUS :   0.37 seconds

 
     Date and time (Linux)  : Tue Dec 14 17:36:01 2021
     Host name              : node653                                 


                     .---------------------------------------.
                     | End of Wave Function Section (SIRIUS) |
                     `---------------------------------------'

 Trust radius squarely increased due to very good ratio.
 Updated trust radius   0.50000

     Order of analytical energy-derivatives available:   2
     This will be the default.

 Center of mass dipole origin  :    4.148569    0.930439   -0.603992

 Center of mass gauge origin   :    4.148569    0.930439   -0.603992


                 .------------------------------------------------.
                 | Starting in Static Property Section (ABACUS) - |
                 `------------------------------------------------'


 
     Date and time (Linux)  : Tue Dec 14 17:36:01 2021
     Host name              : node653                                 

 Largest deviation from tra-rot symmetry is in gradient element  1:  9.93E-07


   ***************************************************************************
   ************************ FINAL RESULTS from ABACUS ************************
   ***************************************************************************


 
     Date and time (Linux)  : Tue Dec 14 17:36:07 2021
     Host name              : node653                                 


 CPU time statistics for ABACUS
 ------------------------------

 TWOTEX     00:00:05      98 %

 TOTAL      00:00:05     100 %


  Total CPU  time used in ABACUS:   5.49 seconds
  Total wall time used in ABACUS:   5.49 seconds


                   .-------------------------------------------.
                   | End of Static Property Section (ABACUS) - |
                   `-------------------------------------------'



           :::::::::::::::::::::::::::::::::::::::::::::::::::::::::::
           ::::::::::::::: Optimization Control Center :::::::::::::::
           :::::::::::::::::::::::::::::::::::::::::::::::::::::::::::



                                Next geometry (au)
                                ------------------

 C          1.8829974521            0.1395828922           -0.1116782838
 C          4.7513924548            0.1736588156           -0.1763587104
 O          5.7180613637            2.3526135515           -1.3518342871
 H          1.1957979423           -1.5243931845            0.8993027542
 H          1.0917733375            0.0832030843           -2.0226739697
 H          1.1627592452            1.8272471401            0.8314274044
 H          5.4703679093           -1.5359902601           -1.0980708300
 H          5.5095355875            0.1944695524            1.7385404812
 H          5.1702780155            2.3760088731           -3.0505082008





                             Optimization information
                             ------------------------

 Iteration number               :       1
 End of optimization            :       F 
 Energy at this geometry is     :    -154.092525
 Energy change from last geom.  :      -0.001573
 Predicted change               :      -0.001591
 Ratio, actual/predicted change :       0.988553
 Norm of gradient               :       0.015314
 Norm of step                   :       0.059963
 Updated trust radius           :       0.500000
 Total Hessian index            :       0




 **************************************************************************************
 ****************** Output of molecule and basis set info suppressed ******************
 **************************************************************************************



                     .---------------------------------------.
                     | Starting in Integral Section (HERMIT) |
                     `---------------------------------------'



 ***************************************************************************************
 ****************** Output from **INTEGRALS input processing (HERMIT) ******************
 ***************************************************************************************


 - Using defaults, no **INTEGRALS input found

 Default print level:       -1

 * Nuclear model: Point charge

 Calculation of one- and two-electron Hamiltonian integrals.

 Center of mass  (bohr):      4.144629467186      0.930032161993     -0.603842694451
 Operator center (bohr):      0.000000000000      0.000000000000      0.000000000000
 Gauge origin    (bohr):      0.000000000000      0.000000000000      0.000000000000
 Dipole origin   (bohr):      0.000000000000      0.000000000000      0.000000000000

 Threshold for neglecting two-electron integrals:  1.00D-12
 HERMIT - Number of two-electron integrals written:     3438778 ( 99.5% )
 HERMIT - Megabytes written:                             39.380

  Time used in TWOINT     is       1.59 seconds
  Total CPU  time used in HERMIT:   1.65 seconds
  Total wall time used in HERMIT:   1.65 seconds


                        .----------------------------------.
                        | End of Integral Section (HERMIT) |
                        `----------------------------------'



                   .--------------------------------------------.
                   | Starting in Wave Function Section (SIRIUS) |
                   `--------------------------------------------'


 **********************************************************************
 *SIRIUS* a direct, restricted step, second order MCSCF program       *
 **********************************************************************

 (Wave function specification suppressed here, see output above for initial geometry.)


 ***********************************************
 ***** DIIS acceleration of SCF iterations *****
 ***********************************************

 C1-DIIS algorithm; max error vectors =    8

 Iter      Total energy        Error norm    Delta(E)  DIIS dim.
 -----------------------------------------------------------------------------
     (Precalculated two-electron integrals are transformed to P-supermatrix elements.
      Threshold for discarding integrals :  1.00D-12 )
  Time used in FORMSUP    is       0.21 seconds
@  1    -154.092626497        2.87000D-02   -1.01D-04    1
      Virial theorem: -V/T =      2.000506
@      MULPOP C      -0.08; C       0.17; O      -0.38; H       0.03; H       0.02; H       0.04; H       0.01; H       0.03; H       0.15; 
 -----------------------------------------------------------------------------
@  2    -154.092688402        8.03796D-03   -6.19D-05    2
      Virial theorem: -V/T =      2.000397
@      MULPOP C      -0.08; C       0.17; O      -0.37; H       0.03; H       0.02; H       0.04; H       0.01; H       0.03; H       0.15; 
 -----------------------------------------------------------------------------
@  3    -154.092693707        3.59062D-03   -5.31D-06    3
      Virial theorem: -V/T =      2.000475
@      MULPOP C      -0.08; C       0.17; O      -0.37; H       0.03; H       0.02; H       0.04; H       0.01; H       0.03; H       0.15; 
 -----------------------------------------------------------------------------
@  4    -154.092694629        9.11769D-04   -9.22D-07    4
      Virial theorem: -V/T =      2.000445
@      MULPOP C      -0.08; C       0.17; O      -0.37; H       0.03; H       0.02; H       0.04; H       0.01; H       0.03; H       0.15; 
 -----------------------------------------------------------------------------
@  5    -154.092694742        2.64225D-04   -1.13D-07    5
      Virial theorem: -V/T =      2.000450
@      MULPOP C      -0.08; C       0.17; O      -0.37; H       0.03; H       0.02; H       0.04; H       0.01; H       0.03; H       0.15; 
 -----------------------------------------------------------------------------
@  6    -154.092694754        7.71008D-05   -1.18D-08    6
      Virial theorem: -V/T =      2.000451
@      MULPOP C      -0.08; C       0.17; O      -0.37; H       0.03; H       0.02; H       0.04; H       0.01; H       0.03; H       0.15; 
 -----------------------------------------------------------------------------
@  7    -154.092694755        2.11548D-05   -8.80D-10    7
      Virial theorem: -V/T =      2.000451
@      MULPOP C      -0.08; C       0.17; O      -0.37; H       0.03; H       0.02; H       0.04; H       0.01; H       0.03; H       0.15; 
 -----------------------------------------------------------------------------
@  8    -154.092694755        5.04435D-06   -5.85D-11    8

@ *** DIIS converged in   8 iterations !
@     Converged SCF energy, gradient:   -154.092694754584    5.04D-06
    - total time used in SIRFCK :              0.00 seconds


 *** SCF orbital energy analysis ***

 Only the 20 lowest virtual orbital energies printed in each symmetry.

 Number of electrons :   26
 Orbital occupations :   13

 Sym       Hartree-Fock orbital energies

1 A     -20.54632870   -11.27461207   -11.22309524    -1.36036345    -1.01071868
         -0.84721474    -0.68630109    -0.62101726    -0.60413397    -0.54143819
         -0.52279992    -0.47577776    -0.43539815     0.18013977     0.22103017
          0.23479537     0.25440866     0.26632819     0.28689422     0.38719247
          0.40411025     0.59752625     0.61927102     0.66328126     0.73231908
          0.75432735     0.80921140     0.85356658     0.88207612     0.88948614
          0.90051422     0.91992751     0.93340911

    E(LUMO) :     0.18013977 au (symmetry 1)
  - E(HOMO) :    -0.43539815 au (symmetry 1)
  ------------------------------------------
    gap     :     0.61553791 au

 --- Writing SIRIFC interface file

 CPU and wall time for SCF :       0.320       0.317


                       .-----------------------------------.
                       | --- Final results from SIRIUS --- |
                       `-----------------------------------'


@    Spin multiplicity:           1
@    Spatial symmetry:            1 ( irrep  A   in C1  )
@    Total charge of molecule:    0

@    Final HF energy:            -154.092694754584                 
@    Nuclear repulsion:            82.137259249796
@    Electronic energy:          -236.229954004380

@    Final gradient norm:           0.000005044347

 
     Date and time (Linux)  : Tue Dec 14 17:36:09 2021
     Host name              : node653                                 

  Total CPU  time used in SIRIUS :   0.33 seconds
  Total wall time used in SIRIUS :   0.33 seconds

 
     Date and time (Linux)  : Tue Dec 14 17:36:09 2021
     Host name              : node653                                 


                     .---------------------------------------.
                     | End of Wave Function Section (SIRIUS) |
                     `---------------------------------------'

 Trust radius squarely increased due to very good ratio.
 Updated trust radius   0.50000

     Order of analytical energy-derivatives available:   2
     This will be the default.

 Center of mass dipole origin  :    4.144629    0.930032   -0.603843

 Center of mass gauge origin   :    4.144629    0.930032   -0.603843


                 .------------------------------------------------.
                 | Starting in Static Property Section (ABACUS) - |
                 `------------------------------------------------'


 
     Date and time (Linux)  : Tue Dec 14 17:36:09 2021
     Host name              : node653                                 

 Largest deviation from tra-rot symmetry is in gradient element  8:  1.07E-06


   ***************************************************************************
   ************************ FINAL RESULTS from ABACUS ************************
   ***************************************************************************


 
     Date and time (Linux)  : Tue Dec 14 17:36:14 2021
     Host name              : node653                                 


 CPU time statistics for ABACUS
 ------------------------------

 TWOTEX     00:00:05      98 %

 TOTAL      00:00:05     100 %


  Total CPU  time used in ABACUS:   5.34 seconds
  Total wall time used in ABACUS:   5.36 seconds


                   .-------------------------------------------.
                   | End of Static Property Section (ABACUS) - |
                   `-------------------------------------------'



           :::::::::::::::::::::::::::::::::::::::::::::::::::::::::::
           ::::::::::::::: Optimization Control Center :::::::::::::::
           :::::::::::::::::::::::::::::::::::::::::::::::::::::::::::



                                Next geometry (au)
                                ------------------

 C          1.8832010553            0.1391644470           -0.1090339584
 C          4.7516797730            0.1776237093           -0.1767379412
 O          5.7149517096            2.3509365917           -1.3532827646
 H          1.1967703740           -1.5266529408            0.9002327866
 H          1.0957911973            0.0843479199           -2.0209002232
 H          1.1606617984            1.8257470783            0.8336036240
 H          5.4668438680           -1.5337192040           -1.0995257258
 H          5.5057593903            0.1925632391            1.7397819216
 H          5.1773041420            2.3763896239           -3.0559913609





                             Optimization information
                             ------------------------

 Iteration number               :       2
 End of optimization            :       F 
 Energy at this geometry is     :    -154.092695
 Energy change from last geom.  :      -0.000169
 Predicted change               :      -0.000163
 Ratio, actual/predicted change :       1.041595
 Norm of gradient               :       0.005536
 Norm of step                   :       0.022574
 Updated trust radius           :       0.500000
 Total Hessian index            :       0




 **************************************************************************************
 ****************** Output of molecule and basis set info suppressed ******************
 **************************************************************************************



                     .---------------------------------------.
                     | Starting in Integral Section (HERMIT) |
                     `---------------------------------------'



 ***************************************************************************************
 ****************** Output from **INTEGRALS input processing (HERMIT) ******************
 ***************************************************************************************


 - Using defaults, no **INTEGRALS input found

[...]
   43 tors     -0.001682    0.031736   -0.016879   -0.043068   -0.007141
   44 tors     -0.001785   -0.057834    0.003245   -0.034045    0.002336
   45 tors     -0.001192   -0.041296    0.012977   -0.010582   -0.009294
   46 tors     -0.001363   -0.010357   -0.048263    0.012165   -0.005784
   47 tors     -0.000770    0.006180   -0.038531    0.035627   -0.017414
   48 tors     -0.003754    0.013806    0.032149    0.019952   -0.007432
   49 tors      0.001845    0.005914    0.006352    0.004738    0.011456

                6  3153     7  1627     8  1594     9  1584    10  1550 
  ----------------------------------------------------------------------

    1 stre      0.015794    0.031448   -0.070440   -0.005109   -0.185111
    2 stre      0.226766    0.000715   -0.014283   -0.001832    0.003568
    3 stre      0.269874    0.003289    0.009252   -0.014610   -0.000412
    4 stre      0.079173    0.002577    0.007718    0.009580   -0.005672
    5 stre      0.026639    0.055379    0.037987    0.011684    0.093811
    6 stre     -0.946233   -0.021040    0.005560    0.002741   -0.006643
    7 stre     -0.187316   -0.013431    0.005761   -0.003819   -0.007682
    8 stre     -0.000413   -0.000741    0.000720    0.002265    0.004619
   25 bend     -0.013799   -0.080326   -0.104123   -0.017622    0.130872
   26 bend     -0.006345    0.050036    0.125155   -0.165324    0.145151
   27 bend      0.032106    0.044952    0.128741    0.133207    0.138471
   28 bend     -0.008422    0.076544    0.221014    0.551308   -0.291976
   29 bend     -0.000958    0.091305    0.239337   -0.511843   -0.198201
   30 bend     -0.003258   -0.183299   -0.617804    0.010809    0.056736
   31 bend     -0.033765   -0.044900    0.024095    0.005159    0.013064
   32 bend      0.020773   -0.104669    0.127975    0.024237    0.232362
   33 bend     -0.020610   -0.105811    0.123153    0.017472    0.276994
   34 bend      0.028817   -0.186292   -0.036699    0.011579   -0.182989
   35 bend     -0.019125   -0.197203   -0.029918   -0.064180   -0.328996
   36 bend      0.024827    0.676647   -0.227098    0.002667   -0.028192
   37 bend     -0.007954    0.015395   -0.013695   -0.091214   -0.185493
   38 tors     -0.035484   -0.004400    0.007035   -0.000658   -0.006212
   39 tors      0.014562   -0.007740   -0.005775    0.396875   -0.015788
   40 tors      0.038405   -0.083835   -0.297046   -0.175705    0.169532
   41 tors      0.025509    0.083825    0.311340   -0.169206   -0.087172
   42 tors     -0.014160    0.346942   -0.071916    0.359736    0.038267
   43 tors     -0.044673   -0.354593    0.054080    0.331174   -0.236094
   44 tors      0.009684    0.270846   -0.363188   -0.212843    0.223587
   45 tors     -0.020830   -0.430689   -0.237192   -0.241405   -0.050774
   46 tors     -0.003213    0.438507    0.245198   -0.206344   -0.033116
   47 tors     -0.033727   -0.263028    0.371195   -0.234906   -0.307478
   48 tors     -0.011326   -0.315819    0.164746    0.043685    0.169372
   49 tors      0.021696    0.279712   -0.138457    0.016734   -0.139331

               11  1508    12  1484    13  1379    14  1231    15  1192 
  ----------------------------------------------------------------------

    1 stre      0.078828    0.003157    0.012140   -0.005869    0.163556
    2 stre     -0.008445   -0.001016    0.001852   -0.008849    0.003520
    3 stre     -0.005083   -0.013377   -0.007738    0.002602    0.007760
    4 stre     -0.011196   -0.004680    0.003173    0.007060    0.001250
    5 stre      0.024875    0.049935    0.005855   -0.249246   -0.205911
    6 stre      0.009713   -0.010920    0.006282    0.001368    0.008530
    7 stre     -0.001218    0.009329    0.000832    0.000780    0.002511
    8 stre      0.005467   -0.007007   -0.005439   -0.003649   -0.006790
   25 bend     -0.259309   -0.180432   -0.053326    0.230701   -0.007237
   26 bend     -0.223766   -0.087191    0.210318   -0.023413   -0.100982
   27 bend     -0.248735   -0.055328   -0.172254   -0.209249    0.167511
   28 bend      0.192100    0.102112    0.097749    0.072881   -0.065783
   29 bend      0.355352    0.045141   -0.109465    0.008730    0.015024
   30 bend      0.218752    0.190942    0.029330   -0.079459   -0.012312
   31 bend      0.014652   -0.028807   -0.024347    0.119026   -0.020266
   32 bend      0.033195    0.299891   -0.243758   -0.017953    0.046229
   33 bend      0.143832    0.072816    0.325544    0.024983    0.005057
   34 bend      0.051528   -0.376915    0.091263   -0.162409    0.149462
   35 bend     -0.219260    0.065827   -0.123680    0.052523   -0.171460
   36 bend     -0.032703   -0.042676   -0.011019   -0.019296   -0.017417
   37 bend     -0.240480    0.294072    0.256603   -0.037685    0.234509
   38 tors     -0.026503    0.052119    0.086683    0.068986   -0.083295
   39 tors     -0.029572   -0.028394    0.095223    0.031540   -0.043306
   40 tors      0.046877    0.019466   -0.130558   -0.196714    0.110431
   41 tors      0.081901   -0.126760   -0.190999    0.055752    0.081462
   42 tors     -0.132499    0.258239    0.177663    0.170474   -0.258474
   43 tors     -0.199804    0.084552    0.141455    0.189848   -0.268225
   44 tors     -0.056050    0.306099   -0.048117   -0.057780   -0.104737
   45 tors     -0.123355    0.132412   -0.084325   -0.038406   -0.114488
   46 tors     -0.021026    0.159872   -0.108559    0.194686   -0.133706
   47 tors     -0.088331   -0.013815   -0.144767    0.214060   -0.143457
   48 tors      0.066844    0.138441   -0.181642    0.010201    0.075572
   49 tors     -0.068616   -0.063519   -0.218196   -0.064384    0.033835

               16  1141    17   960    18   860    19   452    20   329 
  ----------------------------------------------------------------------

    1 stre      0.207673    0.211695    0.000239    0.025693    0.002876
    2 stre      0.008887   -0.000364    0.000074    0.002113    0.001464
    3 stre      0.000915    0.003473    0.003960   -0.000624   -0.002467
    4 stre      0.004525    0.003740   -0.002682    0.000907   -0.000575
    5 stre     -0.067339    0.136425   -0.000302    0.007571    0.003565
    6 stre      0.005096   -0.004629    0.003338    0.000346   -0.001040
    7 stre      0.004649   -0.000972   -0.001764   -0.000301    0.000371
    8 stre      0.000186    0.002610   -0.000337    0.001006   -0.002477
   25 bend     -0.180094    0.223166    0.004403   -0.081071   -0.007544
   26 bend      0.213952   -0.082308   -0.211363    0.038522    0.015384
   27 bend      0.040853   -0.093580    0.209853    0.050973   -0.013686
   28 bend     -0.028065    0.003708   -0.041923   -0.008019    0.007745
   29 bend     -0.076965    0.000484    0.037702   -0.011418   -0.001432
   30 bend      0.028061   -0.054152   -0.000530    0.010770   -0.000067
   31 bend     -0.073837   -0.032760    0.001036    0.145634    0.008496
   32 bend      0.002521    0.050061   -0.194725   -0.052739    0.008882
   33 bend     -0.000902    0.050164    0.201546   -0.041106   -0.013867
   34 bend     -0.062178   -0.041905   -0.044363   -0.025507    0.003371
   35 bend      0.153751   -0.032892    0.053373   -0.024420   -0.003485
   36 bend     -0.011166    0.007069   -0.001907   -0.008487   -0.004915
   37 bend     -0.216784   -0.011719   -0.031948    0.014409    0.006614
   38 tors      0.015536    0.002876    0.005171    0.138953   -0.598320
   39 tors      0.036450    0.000024   -0.143770   -0.012838    0.132141
   40 tors      0.049925   -0.097672    0.044792    0.025376    0.117281
   41 tors     -0.151433    0.085351    0.045082   -0.046731    0.116348
   42 tors      0.169371    0.040773    0.060221   -0.045664    0.114866
   43 tors      0.182073   -0.028672    0.058343    0.021647    0.123917
   44 tors      0.182846   -0.056923    0.248783   -0.007450    0.100006
   45 tors      0.195548   -0.126368    0.246905    0.059860    0.109056
   46 tors     -0.018512    0.126100    0.249072   -0.079557    0.099073
   47 tors     -0.005810    0.056656    0.247195   -0.012246    0.108124
   48 tors     -0.082707    0.012592   -0.282904    0.157896   -0.577859
   49 tors     -0.040996   -0.018398   -0.277484    0.121473   -0.583926

               21   286 
  ----------------------

    1 stre     -0.000134
    2 stre     -0.000461
    3 stre      0.000367
    4 stre      0.000536
    5 stre     -0.000099
    6 stre      0.000288
    7 stre     -0.000489
    8 stre      0.001129
   25 bend      0.002102
   26 bend      0.013024
   27 bend     -0.017549
   28 bend     -0.001073
   29 bend     -0.001289
   30 bend      0.005026
   31 bend     -0.000792
   32 bend      0.003580
   33 bend     -0.002398
   34 bend      0.005750
   35 bend     -0.008043
   36 bend      0.001520
   37 bend      0.004062
   38 tors      0.163882
   39 tors      0.313610
   40 tors      0.305020
   41 tors      0.301779
   42 tors      0.303981
   43 tors      0.301403
   44 tors      0.295391
   45 tors      0.292813
   46 tors      0.292150
   47 tors      0.289572
   48 tors      0.172347
   49 tors      0.172518



  Dipole Gradient in Normal Coordinate Basis (D/(A*amu**(1/2)))
  -------------------------------------------------------------


  mode           dMA/dQi        dMB/dQi        dMC/dQi
  ----------------------------------------------------
   1            0.130602      -0.181075       0.987683
   2           -0.019048      -0.907891      -0.765812
   3           -0.256827       0.466848      -1.209072
   4           -0.253739      -0.198395       0.283484
   5           -0.454384      -0.466720      -0.299375
   6            0.918126      -1.092129      -0.104223
   7           -0.084945      -0.049463       0.037115
   8           -0.170799       0.050594      -0.049753
   9           -0.141122      -0.029443       0.388913
  10           -0.829572      -0.788952       0.360233
  11           -0.151558      -0.498433       0.136548
  12            0.057971       0.266311       0.111722
  13            0.300927       0.457808      -0.153115
  14            0.180065       0.838997      -0.292957
  15            0.864412       1.092039      -0.726715
  16            0.135782      -0.348889       0.196936
  17           -0.150287      -0.412776       0.203013
  18            0.008908      -0.211712       0.000379
  19           -0.509754       0.287706       0.037120
  20            1.412944      -0.666174      -0.627210
  21           -0.426955       0.317911       0.065952



                              Total Molecular Energy
                              ----------------------

             electronic     vibrational           total    energy 

            -154.092719        0.085168     -154.007551    Hartrees
           -33819442.46        18692.32    -33800750.14    cm-1
             -404570.37          223.61      -404346.76    kJ/mol
              -96694.64           53.44       -96641.20    kcal/mol


                          Molecular Partition Functions
                          -----------------------------

 Qtran is evaluated per mol at 1 atm. pressure.
 Qrot does not include symmetry numbers.
 Qvib does not include zero point energies
 (i.e., energy scale has vibrational ground state as zero).


 Temp.(K)  Translational     Rotational    Vibrational      Total

    50.00     1.4142D+05        1155.97         1.0003   1.635362D+08
   100.00     8.0001D+05        3265.34         1.0272   2.683319D+09
   200.00     4.5255D+06        9229.82         1.3213   5.518992D+10
   273.15     9.8650D+06       14729.05         1.7645   2.563852D+11
   298.15     1.2279D+07       16796.08         1.9712   4.065494D+11
   300.00     1.2471D+07       16952.60         1.9878   4.202485D+11
   400.00     2.5600D+07       26097.42         3.2478   2.169836D+12
   500.00     4.4722D+07       36469.90         5.6390   9.197259D+12
   600.00     7.0546D+07       47938.86        10.2398   3.462974D+13
   700.00     1.0371D+08       60408.00        19.1629   1.200586D+14
   800.00     1.4482D+08       73802.72        36.5196   3.903163D+14
   900.00     1.9440D+08       88062.97        70.2423   1.202518D+15
  1000.00     2.5298D+08      103139.10       135.4794   3.535001D+15
  1500.00     6.9714D+08      189470.44      3339.1942   4.410669D+17
  2000.00     1.4311D+09      291702.53     63733.5934   2.660583D+19


                                +------------------+
                                ! Polarizabilities !
                                +------------------+


 Vibrational polarizabilities calculated acc. to Rinaldi et al.,
 Chem.Phys.Lett. 128 (1986) 177-181.


                        Vibrational Polarizabilities (au)
                        ---------------------------------

                         Ex          Ey          Ez

            Ex      26.391545  -11.445944  -10.610913
            Ey     -11.445944    9.332294    3.611125
            Ez     -10.610913    3.611125    5.282602



                   Vibrational Polarizabilities (angstroms**3)
                   -------------------------------------------

                         Ex          Ey          Ez

            Ex       3.910823   -1.696114   -1.572375
            Ey      -1.696114    1.382903    0.535113
            Ez      -1.572375    0.535113    0.782801



                   Vibrational Polarizabilities (angstroms**3)
                   -------------------------------------------

               (Along principal axes of moments of inertia)

                         EA          EB          EC

            EA       2.357130   -1.656621   -1.618535
            EB      -1.656621    2.200450    1.681877
            EC      -1.618535    1.681877    1.518948



 Vibrational mean polarization :    5.1155 cm**3 mol**-1


 CPU time statistics for ABACUS
 ------------------------------

 TWOTEX     00:00:19      76 %
 RHSIDE     00:00:01       5 %
 RESPON     00:00:04      18 %
 REST       00:00:01       4 %

 TOTAL      00:00:25     100 %


  Total CPU  time used in ABACUS:  24.77 seconds
  Total wall time used in ABACUS:  24.79 seconds


                   .-------------------------------------------.
                   | End of Static Property Section (ABACUS) - |
                   `-------------------------------------------'



          <<<<<<<<<<<<<<<<<<<<<<<<<<<<<<<<<<<<<<<<<<<<<<<<<<<<<<<<<<<<<<
          <<<<<<<<<<<<<<<<<<<<  End of Optimization <<<<<<<<<<<<<<<<<<<<
          <<<<<<<<<<<<<<<<<<<<<<<<<<<<<<<<<<<<<<<<<<<<<<<<<<<<<<<<<<<<<<



                              Final geometry (bohr)
                              ---------------------

 C          1.8822815897            0.1381940035           -0.1081230619
 C          4.7515217427            0.1794360086           -0.1778755328
 O          5.7127535432            2.3511492427           -1.3525601027
 H          1.1964980475           -1.5283678489            0.9005040505
 H          1.0941100718            0.0859211515           -2.0197565746
 H          1.1593481800            1.8242383747            0.8356998604
 H          5.4666572735           -1.5331563636           -1.0993115490
 H          5.5054950326            0.1933010047            1.7390658582
 H          5.1842978268            2.3756848914           -3.0594965902





                      Final geometry (xyz format; angstrom)
                      -------------------------------------

9

C        0.9960605216            0.0731291173           -0.0572162603
C        2.5143970229            0.0949534465           -0.0941276783
O        3.0230589860            1.2441745984           -0.7157439826
H        0.6331594995           -0.8087774354            0.4765262217
H        0.5789781161            0.0454675153           -1.0688091506
H        0.6135006363            0.9653453749            0.4422333212
H        2.8928304484           -0.8113114082           -0.5817306193
H        2.9133825054            0.1022904865            0.9202740202
H        2.7434122639            1.2571583045           -1.6190158721



@ Iter     Energy        Change       GradNorm  Index   StepLen    TrustRad #Rej
@ ------------------------------------------------------------------------------
@   0     -154.090952     0.000000     0.040186    0    0.284685*   0.500000   0 
@   1     -154.092525    -0.001573     0.015314    0    0.059963*   0.500000   0 
@   2     -154.092695    -0.000169     0.005536    0    0.022574*   0.500000   0 
@   3     -154.092716    -0.000022     0.002161    0    0.011980*   0.500000   0 
@   4     -154.092719    -0.000003     0.000174    0    0.002853*   0.500000   0 
@   5     -154.092719    -0.000000     0.000060    0    0.002820*   0.500000   0 

@  *) Newton step taken.


   Interatomic separations (in Angstrom):
   --------------------------------------

            C           C           O           H           H           H     
            ------      ------      ------      ------      ------      ------
 C     :    0.000000
 C     :    1.518942    0.000000
 O     :    2.431816    1.402089    0.000000
 H     :    1.092857    2.163661    3.368641    0.000000
 H     :    1.094552    2.167556    2.745011    1.766559    0.000000
 H     :    1.091720    2.158396    2.687867    1.774563    1.769355    0.000000
 H     :    2.157565    1.096487    2.063963    2.495201    2.515001    3.066000
 H     :    2.152315    1.090071    1.998120    2.495270    3.067430    2.502567
 H     :    2.625715    1.930920    0.945659    3.621126    2.540806    2.978326

            H           H           H     
            ------      ------      ------
 H     :    0.000000
 H     :    1.758155    0.000000
 H     :    2.318804    2.794746    0.000000


  Max    interatomic separation is    3.6211 Angstrom (    6.8429 Bohr)
  between atoms    9 and    4, "H     " and "H     ".

  Min HX interatomic separation is    0.9457 Angstrom (    1.7870 Bohr)

  Min YX interatomic separation is    1.4021 Angstrom (    2.6496 Bohr)


  Bond distances (Angstrom):
  --------------------------

                  atom 1     atom 2       distance
                  ------     ------       --------
  bond distance:  C          C            1.518942
  bond distance:  O          C            1.402089
  bond distance:  H          C            1.092857
  bond distance:  H          C            1.094552
  bond distance:  H          C            1.091720
  bond distance:  H          C            1.096487
  bond distance:  H          C            1.090071
  bond distance:  H          O            0.945659


  Bond angles (degrees):
  ----------------------

                  atom 1     atom 2     atom 3         angle
                  ------     ------     ------         -----
  bond angle:     C          C          H            110.818
  bond angle:     C          C          H            111.027
  bond angle:     C          C          H            110.466
  bond angle:     H          C          H            107.725
  bond angle:     H          C          H            108.645
  bond angle:     H          C          H            108.056
  bond angle:     C          C          O            112.656
  bond angle:     C          C          H            110.116
  bond angle:     C          C          H            110.081
  bond angle:     O          C          H            110.799
  bond angle:     O          C          H            105.919
  bond angle:     H          C          H            107.042
  bond angle:     C          O          H            109.114



@ Geometry converged in  6 iterations!

@ Energy at final geometry is       :    -154.092719 a.u.
@ Energy change during optimization :      -0.001767 a.u.
@                                             -4.639 kJ/mol
 
  Total CPU  time used in DALTON:  1 minute  10 seconds
  Total wall time used in DALTON:  1 minute  12 seconds

 
     Date and time (Linux)  : Tue Dec 14 17:37:02 2021
     Host name              : node653                                 
