Running on  hostname
Tue Dec  7 12:59:54 CET 2021

                                 *****************
                                 * O   R   C   A *
                                 *****************

                                            #,                                       
                                            ###                                      
                                            ####                                     
                                            #####                                    
                                            ######                                   
                                           ########,                                 
                                     ,,################,,,,,                         
                               ,,#################################,,                 
                          ,,##########################################,,             
                       ,#########################################, ''#####,          
                    ,#############################################,,   '####,        
                  ,##################################################,,,,####,       
                ,###########''''           ''''###############################       
              ,#####''   ,,,,##########,,,,          '''####'''          '####       
            ,##' ,,,,###########################,,,                        '##       
           ' ,,###''''                  '''############,,,                           
         ,,##''                                '''############,,,,        ,,,,,,###''
      ,#''                                            '''#######################'''  
     '                                                          ''''####''''         
             ,#######,   #######,   ,#######,      ##                                
            ,#'     '#,  ##    ##  ,#'     '#,    #''#        ######   ,####,        
            ##       ##  ##   ,#'  ##            #'  '#       #        #'  '#        
            ##       ##  #######   ##           ,######,      #####,   #    #        
            '#,     ,#'  ##    ##  '#,     ,#' ,#      #,         ##   #,  ,#        
             '#######'   ##     ##  '#######'  #'      '#     #####' # '####'        



                  #######################################################
                  #                        -***-                        #
                  #          Department of theory and spectroscopy      #
                  #    Directorship and core code : Frank Neese         #
                  #        Max Planck Institute fuer Kohlenforschung    #
                  #                Kaiser Wilhelm Platz 1               #
                  #                 D-45470 Muelheim/Ruhr               #
                  #                      Germany                        #
                  #                                                     #
                  #                  All rights reserved                #
                  #                        -***-                        #
                  #######################################################


                         Program Version 5.0.1 -  RELEASE  -


 With contributions from (in alphabetic order):
   Daniel Aravena         : Magnetic Suceptibility
   Michael Atanasov       : Ab Initio Ligand Field Theory (pilot matlab implementation)
   Alexander A. Auer      : GIAO ZORA, VPT2 properties, NMR spectrum
   Ute Becker             : Parallelization
   Giovanni Bistoni       : ED, misc. LED, open-shell LED, HFLD
   Martin Brehm           : Molecular dynamics
   Dmytro Bykov           : SCF Hessian
   Vijay G. Chilkuri      : MRCI spin determinant printing, contributions to CSF-ICE
   Dipayan Datta          : RHF DLPNO-CCSD density
   Achintya Kumar Dutta   : EOM-CC, STEOM-CC
   Dmitry Ganyushin       : Spin-Orbit,Spin-Spin,Magnetic field MRCI
   Miquel Garcia          : C-PCM and meta-GGA Hessian, CC/C-PCM, Gaussian charge scheme
   Yang Guo               : DLPNO-NEVPT2, F12-NEVPT2, CIM, IAO-localization
   Andreas Hansen         : Spin unrestricted coupled pair/coupled cluster methods
   Benjamin Helmich-Paris : MC-RPA, TRAH-SCF, COSX integrals
   Lee Huntington         : MR-EOM, pCC
   Robert Izsak           : Overlap fitted RIJCOSX, COSX-SCS-MP3, EOM
   Marcus Kettner         : VPT2
   Christian Kollmar      : KDIIS, OOCD, Brueckner-CCSD(T), CCSD density, CASPT2, CASPT2-K
   Simone Kossmann        : Meta GGA functionals, TD-DFT gradient, OOMP2, MP2 Hessian
   Martin Krupicka        : Initial AUTO-CI
   Lucas Lang             : DCDCAS
   Marvin Lechner         : AUTO-CI (C++ implementation), FIC-MRCC
   Dagmar Lenk            : GEPOL surface, SMD
   Dimitrios Liakos       : Extrapolation schemes; Compound Job, initial MDCI parallelization
   Dimitrios Manganas     : Further ROCIS development; embedding schemes
   Dimitrios Pantazis     : SARC Basis sets
   Anastasios Papadopoulos: AUTO-CI, single reference methods and gradients
   Taras Petrenko         : DFT Hessian,TD-DFT gradient, ASA, ECA, R-Raman, ABS, FL, XAS/XES, NRVS
   Peter Pinski           : DLPNO-MP2, DLPNO-MP2 Gradient
   Christoph Reimann      : Effective Core Potentials
   Marius Retegan         : Local ZFS, SOC
   Christoph Riplinger    : Optimizer, TS searches, QM/MM, DLPNO-CCSD(T), (RO)-DLPNO pert. Triples
   Tobias Risthaus        : Range-separated hybrids, TD-DFT gradient, RPA, STAB
   Michael Roemelt        : Original ROCIS implementation
   Masaaki Saitow         : Open-shell DLPNO-CCSD energy and density
   Barbara Sandhoefer     : DKH picture change effects
   Avijit Sen             : IP-ROCIS
   Kantharuban Sivalingam : CASSCF convergence, NEVPT2, FIC-MRCI
   Bernardo de Souza      : ESD, SOC TD-DFT
   Georgi Stoychev        : AutoAux, RI-MP2 NMR, DLPNO-MP2 response
   Willem Van den Heuvel  : Paramagnetic NMR
   Boris Wezisla          : Elementary symmetry handling
   Frank Wennmohs         : Technical directorship


 We gratefully acknowledge several colleagues who have allowed us to
 interface, adapt or use parts of their codes:
   Stefan Grimme, W. Hujo, H. Kruse, P. Pracht,  : VdW corrections, initial TS optimization,
                  C. Bannwarth, S. Ehlert          DFT functionals, gCP, sTDA/sTD-DF
   Ed Valeev, F. Pavosevic, A. Kumar             : LibInt (2-el integral package), F12 methods
   Garnet Chan, S. Sharma, J. Yang, R. Olivares  : DMRG
   Ulf Ekstrom                                   : XCFun DFT Library
   Mihaly Kallay                                 : mrcc  (arbitrary order and MRCC methods)
   Jiri Pittner, Ondrej Demel                    : Mk-CCSD
   Frank Weinhold                                : gennbo (NPA and NBO analysis)
   Christopher J. Cramer and Donald G. Truhlar   : smd solvation model
   Lars Goerigk                                  : TD-DFT with DH, B97 family of functionals
   V. Asgeirsson, H. Jonsson                     : NEB implementation
   FAccTs GmbH                                   : IRC, NEB, NEB-TS, DLPNO-Multilevel, CI-OPT
                                                   MM, QMMM, 2- and 3-layer-ONIOM, Crystal-QMMM,
                                                   LR-CPCM, SF, NACMEs, symmetry and pop. for TD-DFT,
                                                   nearIR, NL-DFT gradient (VV10), updates on ESD,
                                                   ML-optimized integration grids
   S Lehtola, MJT Oliveira, MAL Marques          : LibXC Library
   Liviu Ungur et al                             : ANISO software


 Your calculation uses the libint2 library for the computation of 2-el integrals
 For citations please refer to: http://libint.valeyev.net

 Your ORCA version has been built with support for libXC version: 5.1.0
 For citations please refer to: https://tddft.org/programs/libxc/

 This ORCA versions uses:
   CBLAS   interface :  Fast vector & matrix operations
   LAPACKE interface :  Fast linear algebra routines
   SCALAPACK package :  Parallel linear algebra routines
   Shared memory     :  Shared parallel matrices
   BLAS/LAPACK       :  OpenBLAS 0.3.15  USE64BITINT DYNAMIC_ARCH NO_AFFINITY Zen SINGLE_THREADED
        Core in use  :  Zen
   Copyright (c) 2011-2014, The OpenBLAS Project


================================================================================

----- Orbital basis set information -----
Your calculation utilizes the basis: cc-pVTZ 
       H, B-Ne : Obtained from the ccRepo (grant-hill.group.shef.ac.uk/ccrepo) Feb. 2017
                 T. H. Dunning, Jr., J. Chem. Phys. 90, 1007 (1989)
            He : Obtained from the ccRepo (grant-hill.group.shef.ac.uk/ccrepo) Feb. 2017
                 D. E. Woon, T. H. Dunning, Jr., J. Chem. Phys. 100, 2975 (1994)
  Li-Be, Na-Mg : Obtained from the ccRepo (grant-hill.group.shef.ac.uk/ccrepo) Feb. 2017
                 B. P. Prascher, D. E. Woon, K. A. Peterson, T. H. Dunning, Jr., A. K. Wilson, Theor. Chem. Acc. 128, 69 (2011)
         Al-Ar : Obtained from the ccRepo (grant-hill.group.shef.ac.uk/ccrepo) Feb. 2017
                 D. E. Woon, T. H. Dunning, Jr., J. Chem. Phys. 98, 1358 (1993)
            Ca : Obtained from the Peterson Research Group Website (tyr0.chem.wsu.edu/~kipeters) Feb. 2017
                 J. Koput, K. A. Peterson, J. Phys. Chem. 106, 9595 (2002)
         Sc-Zn : Obtained from the ccRepo (grant-hill.group.shef.ac.uk/ccrepo) Feb. 2017
                 N. B. Balabanov, K. A. Peterson, J. Chem. Phys. 123, 064107 (2005)
                 N. B. Balabanov, K. A. Peterson, J. Chem. Phys. 125, 074110 (2006)
         Ga-Kr : Obtained from the ccRepo (grant-hill.group.shef.ac.uk/ccrepo) Feb. 2017
                 A. K. Wilson, D. E. Woon, K. A. Peterson, T. H. Dunning, Jr., J. Chem. Phys. 110, 7667 (1999)
             Y : Obtained from the ccRepo (grant-hill.group.shef.ac.uk/ccrepo) Feb. 2017
                 K. A. Peterson, D. Figgen, M. Dolg, H. Stoll, J. Chem. Phys. 126, 124101 (2007)
        Ag, Au : Obtained from the Peterson Research Group Website (tyr0.chem.wsu.edu/~kipeters) Feb. 2017
                 K. A. Peterson, C. Puzzarini, Theor. Chem. Acc. 114, 283 (2005)

================================================================================
                                        WARNINGS
                       Please study these warnings very carefully!
================================================================================


WARNING: Geometry Optimization
  ===> : Switching off AutoStart
         For restart on a previous wavefunction, please use MOREAD

WARNING: Post HF methods need fully converged wavefunctions
  ===> : Setting SCFConvForced true
         You can overwrite this default with %scf ConvForced false 


INFO   : the flag for use of the SHARK integral package has been found!

================================================================================
                                       INPUT FILE
================================================================================
NAME = QC_S_MP2.inp
|  1> ! PAL4
|  2> ! RHF cc-pVTZ MP2 VeryTightSCF NormalOPT NoFrozenCore
|  3> ! Opt Freq
|  4> %pal nprocs 4
|  5> end
|  6> %elprop
|  7> Polar 1
|  8> end
|  9> %maxcore 38000
| 10> * xyz 0 1
| 11>   C   0.27002872850609     -0.57181798488413      0.93978216879225
| 12>   C   0.08980832879775      0.94283113327733      1.04330299832404
| 13>   C   -0.35749147853155      1.36642058508809     -0.33312267367017
| 14>   C   -1.36194578931477      0.80847132080833      0.64376631566550
| 15>   C   -1.17909779138796     -0.72795168218850      0.53882884886457
| 16>   C   -0.08789368810933     -0.89949038580966     -0.48802245175156
| 17>   S   -2.27811357529293     -1.97479104463256      1.08695382697513
| 18>   C   0.01698186442808      0.32618110169902     -1.34982446893243
| 19>   H   -0.40898818451977      2.41603274200839     -0.56304075012372
| 20>   H   0.10349464489447     -1.89153502572792     -0.85737038720410
| 21>   H   1.02473927171560      0.47208470781914     -1.72987712193624
| 22>   H   -0.68118477354609      0.30006905552190     -2.18287150234765
| 23>   H   0.51938853912220      1.60250869109882      1.77394646818044
| 24>   H   0.85393083805952     -1.20451457724329      1.58189410744343
| 25>   S   -2.71280077453460      1.67902967072405      1.33667188419044
| 26>   H   -3.45815027123602      1.74925658138950      0.22851876930029
| 27>   H   -3.00464688905069     -2.06693488894853     -0.03203403177025
| 28> *
| 29> 
| 30> 
| 31>                          ****END OF INPUT****
================================================================================

                       *****************************
                       * Geometry Optimization Run *
                       *****************************

Geometry optimization settings:
Update method            Update   .... BFGS
Choice of coordinates    CoordSys .... Z-matrix Internals
Initial Hessian          InHess   .... Almoef's Model

Convergence Tolerances:
Energy Change            TolE     ....  5.0000e-06 Eh
Max. Gradient            TolMAXG  ....  3.0000e-04 Eh/bohr
RMS Gradient             TolRMSG  ....  1.0000e-04 Eh/bohr
Max. Displacement        TolMAXD  ....  4.0000e-03 bohr
RMS Displacement         TolRMSD  ....  2.0000e-03 bohr
Strict Convergence                ....  False
------------------------------------------------------------------------------
                        ORCA OPTIMIZATION COORDINATE SETUP
------------------------------------------------------------------------------

The optimization will be done in new redundant internal coordinates
Making redundant internal coordinates   ...  (new redundants) done
Evaluating the initial hessian          ...  (Almloef) done
Evaluating the coordinates              ...  done
Calculating the B-matrix                .... done
Calculating the G-matrix                .... done
Diagonalizing the G-matrix              .... done
The first mode is                       ....  109
The number of degrees of freedom        ....   45

    -----------------------------------------------------------------
                    Redundant Internal Coordinates


    -----------------------------------------------------------------
         Definition                    Initial Value    Approx d2E/dq
    -----------------------------------------------------------------
      1. B(C   1,C   0)                  1.5288         0.375167   
      2. B(C   2,C   1)                  1.5080         0.405026   
      3. B(C   3,C   2)                  1.5082         0.404782   
      4. B(C   3,C   1)                  1.5117         0.399535   
      5. B(C   4,C   3)                  1.5508         0.346068   
      6. B(C   4,C   0)                  1.5117         0.399615   
      7. B(C   5,C   0)                  1.5080         0.405001   
      8. B(C   5,C   4)                  1.5082         0.404768   
      9. B(S   6,C   4)                  1.7501         0.448718   
     10. B(C   7,C   5)                  1.5020         0.414063   
     11. B(C   7,C   2)                  1.5020         0.414044   
     12. B(H   8,C   2)                  1.0757         0.379478   
     13. B(H   9,C   5)                  1.0757         0.379478   
     14. B(H  10,C   7)                  1.0869         0.364254   
     15. B(H  11,C   7)                  1.0872         0.363773   
     16. B(H  12,C   1)                  1.0740         0.381850   
     17. B(H  13,C   0)                  1.0740         0.381849   
     18. B(S  14,C   3)                  1.7501         0.448759   
     19. B(H  15,S  14)                  1.3373         0.391358   
     20. B(H  16,S   6)                  1.3373         0.391361   
     21. A(C   5,C   0,H  13)          124.5472         0.331863   
     22. A(C   4,C   0,C   5)           59.9269         0.372707   
     23. A(C   4,C   0,H  13)          128.2353         0.331128   
     24. A(C   1,C   0,C   5)          104.5605         0.368682   
     25. A(C   1,C   0,C   4)           90.4173         0.367836   
     26. A(C   1,C   0,H  13)          127.3887         0.327693   
     27. A(C   3,C   1,H  12)          128.2058         0.331117   
     28. A(C   2,C   1,H  12)          124.5438         0.331866   
     29. A(C   2,C   1,C   3)           59.9257         0.372698   
     30. A(C   0,C   1,C   3)           90.4157         0.367824   
     31. A(C   0,C   1,H  12)          127.4030         0.327693   
     32. A(C   0,C   1,C   2)          104.5633         0.368686   
     33. A(C   7,C   2,H   8)          122.8890         0.332736   
     34. A(C   3,C   2,H   8)          117.8740         0.331491   
     35. A(C   1,C   2,H   8)          118.9050         0.331524   
     36. A(C   3,C   2,C   7)          110.3822         0.374959   
     37. A(C   1,C   2,C   7)          110.4474         0.374998   
     38. A(C   1,C   2,C   3)           60.1595         0.373537   
     39. A(C   2,C   3,S  14)          125.9096         0.400662   
     40. A(C   1,C   3,C   4)           89.5823         0.362775   
     41. A(C   4,C   3,S  14)          127.6342         0.389802   
     42. A(C   1,C   3,C   2)           59.9149         0.372660   
     43. A(C   2,C   3,C   4)          104.1324         0.363584   
     44. A(C   1,C   3,S  14)          126.3284         0.399744   
     45. A(C   0,C   4,S   6)          126.3350         0.399751   
     46. A(C   3,C   4,C   5)          104.1264         0.363582   
     47. A(C   0,C   4,C   5)           59.9166         0.372670   
     48. A(C   0,C   4,C   3)           89.5847         0.362787   
     49. A(C   5,C   4,S   6)          125.9135         0.400654   
     50. A(C   3,C   4,S   6)          127.6321         0.389795   
     51. A(C   0,C   5,C   4)           60.1565         0.373531   
     52. A(C   7,C   5,H   9)          122.8965         0.332738   
     53. A(C   4,C   5,H   9)          117.8648         0.331489   
     54. A(C   0,C   5,H   9)          118.8972         0.331520   
     55. A(C   4,C   5,C   7)          110.3873         0.374960   
     56. A(C   0,C   5,C   7)          110.4488         0.374997   
     57. A(C   4,S   6,H  16)           97.3647         0.382555   
     58. A(C   2,C   7,H  11)          112.0353         0.330415   
     59. A(C   5,C   7,H  10)          112.0194         0.330490   
     60. A(C   2,C   7,H  10)          112.0175         0.330487   
     61. A(C   2,C   7,C   5)           99.1700         0.376430   
     62. A(H  10,C   7,H  11)          109.3115         0.291829   
     63. A(C   5,C   7,H  11)          112.0362         0.330418   
     64. A(C   3,S  14,H  15)           97.3681         0.382560   
     65. D(C   2,C   1,C   0,H  13)    159.3778         0.011233   
     66. D(H  12,C   1,C   0,C   4)    141.6394         0.011233   
     67. D(H  12,C   1,C   0,C   5)   -159.4152         0.011233   
     68. D(H  12,C   1,C   0,H  13)     -0.0374         0.011233   
     69. D(C   2,C   1,C   0,C   5)     -0.0001         0.011233   
     70. D(C   3,C   1,C   0,C   4)     -0.0023         0.011233   
     71. D(C   2,C   1,C   0,C   4)    -58.9455         0.011233   
     72. D(C   3,C   1,C   0,C   5)     58.9431         0.011233   
     73. D(C   3,C   1,C   0,H  13)   -141.6790         0.011233   
     74. D(C   7,C   2,C   1,C   3)   -102.3943         0.013005   
     75. D(C   3,C   2,C   1,H  12)   -117.9720         0.013005   
     76. D(C   3,C   2,C   1,C   0)     81.8491         0.013005   
     77. D(C   7,C   2,C   1,H  12)    139.6338         0.013005   
     78. D(H   8,C   2,C   1,C   0)   -170.7558         0.013005   
     79. D(C   7,C   2,C   1,C   0)    -20.5452         0.013005   
     80. D(H   8,C   2,C   1,C   3)    107.3951         0.013005   
     81. D(H   8,C   2,C   1,H  12)    -10.5769         0.013005   
     82. D(C   1,C   3,C   2,H   8)   -109.0857         0.012989   
     83. D(C   4,C   3,C   2,C   7)     21.3953         0.012989   
     84. D(C   4,C   3,C   2,C   1)    -81.1090         0.012989   
     85. D(C   1,C   3,C   2,C   7)    102.5043         0.012989   
     86. D(S  14,C   3,C   1,H  12)     -2.3266         0.012666   
     87. D(C   4,C   3,C   2,H   8)    169.8053         0.012989   
     88. D(C   4,C   3,C   1,C   0)      0.0022         0.012666   
     89. D(C   2,C   3,C   1,C   0)   -106.6409         0.012666   
     90. D(S  14,C   3,C   2,C   1)    115.2005         0.012989   
     91. D(C   2,C   3,C   1,H  12)    112.2148         0.012666   
     92. D(S  14,C   3,C   1,C   2)   -114.5413         0.012666   
     93. D(S  14,C   3,C   1,C   0)    138.8177         0.012666   
     94. D(C   4,C   3,C   1,C   2)    106.6431         0.012666   
     95. D(S  14,C   3,C   2,H   8)      6.1148         0.012989   
     96. D(S  14,C   3,C   2,C   7)   -142.2952         0.012989   
     97. D(C   4,C   3,C   1,H  12)   -141.1421         0.012666   
     98. D(S   6,C   4,C   3,S  14)      0.0088         0.009667   
     99. D(S   6,C   4,C   3,C   2)   -163.2999         0.009667   
    100. D(S   6,C   4,C   3,C   1)    137.9506         0.009667   
    101. D(C   5,C   4,C   3,C   2)     -0.0057         0.009667   
    102. D(C   5,C   4,C   3,C   1)    -58.7552         0.009667   
    103. D(C   0,C   4,C   3,S  14)   -137.9440         0.009667   
    104. D(S   6,C   4,C   0,C   1)   -138.8183         0.012671   
    105. D(S   6,C   4,C   0,C   5)    114.5452         0.012671   
    106. D(S   6,C   4,C   0,H  13)      2.3342         0.012671   
    107. D(C   5,C   4,C   0,H  13)   -112.2110         0.012671   
    108. D(C   0,C   4,C   3,C   1)     -0.0022         0.009667   
    109. D(C   5,C   4,C   0,C   1)    106.6365         0.012671   
    110. D(C   5,C   4,C   3,S  14)    163.3030         0.009667   
    111. D(C   0,C   4,C   3,C   2)     58.7473         0.009667   
    112. D(C   3,C   4,C   0,H  13)    141.1547         0.012671   
    113. D(C   3,C   4,C   0,C   5)   -106.6343         0.012671   
    114. D(C   3,C   4,C   0,C   1)      0.0022         0.012671   
    115. D(C   7,C   5,C   4,C   3)    -21.3863         0.012989   
    116. D(C   7,C   5,C   4,C   0)   -102.5025         0.012989   
    117. D(C   0,C   5,C   4,S   6)   -115.2087         0.012989   
    118. D(H   9,C   5,C   0,H  13)     10.6223         0.013003   
    119. D(H   9,C   5,C   0,C   4)   -107.3861         0.013003   
    120. D(H   9,C   5,C   0,C   1)    170.7608         0.013003   
    121. D(C   7,C   5,C   0,H  13)   -139.5927         0.013003   
    122. D(C   0,C   5,C   4,C   3)     81.1163         0.012989   
    123. D(C   7,C   5,C   0,C   4)    102.3989         0.013003   
    124. D(C   7,C   5,C   0,C   1)     20.5457         0.013003   
    125. D(C   4,C   5,C   0,H  13)    118.0084         0.013003   
    126. D(C   7,C   5,C   4,S   6)    142.2888         0.012989   
    127. D(C   4,C   5,C   0,C   1)    -81.8532         0.013003   
    128. D(H   9,C   5,C   4,S   6)     -6.1295         0.012989   
    129. D(H   9,C   5,C   4,C   3)   -169.8046         0.012989   
    130. D(H   9,C   5,C   4,C   0)    109.0792         0.012989   
    131. D(H  16,S   6,C   4,C   5)    -71.1399         0.004778   
    132. D(H  16,S   6,C   4,C   3)     88.7275         0.004778   
    133. D(H  16,S   6,C   4,C   0)   -147.5124         0.004778   
    134. D(H  11,C   7,C   5,C   4)    -85.3191         0.013574   
    135. D(H  11,C   7,C   5,C   0)   -149.9773         0.013574   
    136. D(H  10,C   7,C   5,H   9)    -62.0490         0.013574   
    137. D(H  10,C   7,C   5,C   4)    151.4146         0.013574   
    138. D(H  10,C   7,C   5,C   0)     86.7564         0.013574   
    139. D(C   2,C   7,C   5,H   9)    179.5978         0.013574   
    140. D(C   2,C   7,C   5,C   4)     33.0614         0.013574   
    141. D(C   2,C   7,C   5,C   0)    -31.5968         0.013574   
    142. D(H  11,C   7,C   2,H   8)    -61.2163         0.013573   
    143. D(H  11,C   7,C   2,C   3)     85.3176         0.013573   
    144. D(H  11,C   7,C   2,C   1)    149.9774         0.013573   
    145. D(H  10,C   7,C   2,H   8)     62.0479         0.013573   
    146. D(H  10,C   7,C   2,C   3)   -151.4182         0.013573   
    147. D(H  10,C   7,C   2,C   1)    -86.7584         0.013573   
    148. D(C   5,C   7,C   2,H   8)   -179.5975         0.013573   
    149. D(C   5,C   7,C   2,C   3)    -33.0636         0.013573   
    150. D(H  11,C   7,C   5,H   9)     61.2173         0.013574   
    151. D(C   5,C   7,C   2,C   1)     31.5962         0.013573   
    152. D(H  15,S  14,C   3,C   4)    -88.7859         0.004778   
    153. D(H  15,S  14,C   3,C   2)     71.1007         0.004778   
    154. D(H  15,S  14,C   3,C   1)    147.4649         0.004778   
    -----------------------------------------------------------------

Number of atoms                         .... 17
Number of degrees of freedom            .... 154

         *************************************************************
         *                GEOMETRY OPTIMIZATION CYCLE   1            *
         *************************************************************
---------------------------------
CARTESIAN COORDINATES (ANGSTROEM)
---------------------------------
  C      0.270029   -0.571818    0.939782
  C      0.089808    0.942831    1.043303
  C     -0.357491    1.366421   -0.333123
  C     -1.361946    0.808471    0.643766
  C     -1.179098   -0.727952    0.538829
  C     -0.087894   -0.899490   -0.488022
  S     -2.278114   -1.974791    1.086954
  C      0.016982    0.326181   -1.349824
  H     -0.408988    2.416033   -0.563041
  H      0.103495   -1.891535   -0.857370
  H      1.024739    0.472085   -1.729877
  H     -0.681185    0.300069   -2.182872
  H      0.519389    1.602509    1.773946
  H      0.853931   -1.204515    1.581894
  S     -2.712801    1.679030    1.336672
  H     -3.458150    1.749257    0.228519
  H     -3.004647   -2.066935   -0.032034

----------------------------
CARTESIAN COORDINATES (A.U.)
----------------------------
  NO LB      ZA    FRAG     MASS         X           Y           Z
   0 C     6.0000    0    12.011    0.510280   -1.080579    1.775931
   1 C     6.0000    0    12.011    0.169713    1.781693    1.971557
   2 C     6.0000    0    12.011   -0.675561    2.582161   -0.629511
   3 C     6.0000    0    12.011   -2.573705    1.527789    1.216542
   4 C     6.0000    0    12.011   -2.228172   -1.375629    1.018239
   5 C     6.0000    0    12.011   -0.166095   -1.699790   -0.922229
   6 S    16.0000    0    32.060   -4.305011   -3.731814    2.054045
   7 C     6.0000    0    12.011    0.032091    0.616393   -2.550799
   8 H     1.0000    0     1.008   -0.772876    4.565640   -1.063993
   9 H     1.0000    0     1.008    0.195577   -3.574483   -1.620195
  10 H     1.0000    0     1.008    1.936477    0.892111   -3.268994
  11 H     1.0000    0     1.008   -1.287253    0.567048   -4.125029
  12 H     1.0000    0     1.008    0.981502    3.028303    3.352273
  13 H     1.0000    0     1.008    1.613695   -2.276203    2.989347
  14 S    16.0000    0    32.060   -5.126451    3.172906    2.525944
  15 H     1.0000    0     1.008   -6.534957    3.305616    0.431838
  16 H     1.0000    0     1.008   -5.677960   -3.905941   -0.060536

--------------------------------
INTERNAL COORDINATES (ANGSTROEM)
--------------------------------
 C      0   0   0     0.000000000000     0.00000000     0.00000000
 C      1   0   0     1.528842014652     0.00000000     0.00000000
 C      2   1   0     1.507996277133   104.56328707     0.00000000
 C      3   2   1     1.508160449503    60.15945665    81.84905630
 C      1   2   3     1.511657688386    90.41731337   301.05453707
 C      1   2   3     1.508013160782   104.56050395     0.00000000
 S      5   1   2     1.750110019582   126.33503185   221.18170903
 C      6   1   2     1.501989411956   110.44875676    20.54570953
 H      3   2   1     1.075732268068   118.90498028   189.24417940
 H      6   1   2     1.075732289663   118.89719875   170.76075401
 H      8   6   1     1.086877579710   112.01937846    86.75641742
 H      8   6   1     1.087237716977   112.03619314   210.02272129
 H      2   1   3     1.074036087587   127.40296371   200.58485889
 H      1   2   3     1.074036495321   127.38866031   159.37778780
 S      4   3   2     1.750085471797   125.90963893   115.20046778
 H     15   4   3     1.337341025040    97.36813525    71.10069433
 H      7   5   1     1.337338764885    97.36470443   212.48757836

---------------------------
INTERNAL COORDINATES (A.U.)
---------------------------
 C      0   0   0     0.000000000000     0.00000000     0.00000000
 C      1   0   0     2.889092709725     0.00000000     0.00000000
 C      2   1   0     2.849699974754   104.56328707     0.00000000
 C      3   2   1     2.850010215573    60.15945665    81.84905630
 C      1   2   3     2.856619039285    90.41731337   301.05453707
 C      1   2   3     2.849731880226   104.56050395     0.00000000
 S      5   1   2     3.307228641241   126.33503185   221.18170903
 C      6   1   2     2.838348644647   110.44875676    20.54570953
 H      3   2   1     2.032839380070   118.90498028   189.24417940
 H      6   1   2     2.032839420879   118.89719875   170.76075401
 H      8   6   1     2.053900966752   112.01937846    86.75641742
 H      8   6   1     2.054581527557   112.03619314   210.02272129
 H      2   1   3     2.029634063488   127.40296371   200.58485889
 H      1   2   3     2.029634833994   127.38866031   159.37778780
 S      4   3   2     3.307182252650   125.90963893   115.20046778
 H     15   4   3     2.527208284983    97.36813525    71.10069433
 H      7   5   1     2.527204013910    97.36470443   212.48757836

---------------------
BASIS SET INFORMATION
---------------------
There are 3 groups of distinct atoms

 Group   1 Type C   : 18s5p2d1f contracted to 4s3p2d1f pattern {8811/311/11/1}
 Group   2 Type S   : 41s16p2d1f contracted to 5s4p2d1f pattern {13131311/7711/11/1}
 Group   3 Type H   : 5s2p1d contracted to 3s2p1d pattern {311/11/1}

Atom   0C    basis set group =>   1
Atom   1C    basis set group =>   1
Atom   2C    basis set group =>   1
Atom   3C    basis set group =>   1
Atom   4C    basis set group =>   1
Atom   5C    basis set group =>   1
Atom   6S    basis set group =>   2
Atom   7C    basis set group =>   1
Atom   8H    basis set group =>   3
Atom   9H    basis set group =>   3
Atom  10H    basis set group =>   3
Atom  11H    basis set group =>   3
Atom  12H    basis set group =>   3
Atom  13H    basis set group =>   3
Atom  14S    basis set group =>   2
Atom  15H    basis set group =>   3
Atom  16H    basis set group =>   3


           ************************************************************
           *        Program running with 4 parallel MPI-processes     *
           *              working on a common directory               *
           ************************************************************
------------------------------------------------------------------------------
                           ORCA GTO INTEGRAL CALCULATION
------------------------------------------------------------------------------
------------------------------------------------------------------------------
                   ___                                                        
                  /   \      - P O W E R E D   B Y -                         
                 /     \                                                     
                 |  |  |   _    _      __       _____    __    __             
                 |  |  |  | |  | |    /  \     |  _  \  |  |  /  |          
                  \  \/   | |  | |   /    \    | | | |  |  | /  /          
                 / \  \   | |__| |  /  /\  \   | |_| |  |  |/  /          
                |  |  |   |  __  | /  /__\  \  |    /   |      \           
                |  |  |   | |  | | |   __   |  |    \   |  |\   \          
                \     /   | |  | | |  |  |  |  | |\  \  |  | \   \       
                 \___/    |_|  |_| |__|  |__|  |_| \__\ |__|  \__/        
                                                                              
                      - O R C A' S   B I G   F R I E N D -                    
                                      &                                       
                       - I N T E G R A L  F E E D E R -                       
                                                                              
 v1 FN, 2020, v2 2021                                                         
------------------------------------------------------------------------------


Reading SHARK input file QC_S_MP2.SHARKINP.tmp ... ok
----------------------
SHARK INTEGRAL PACKAGE
----------------------

Number of atoms                             ...     17
Number of basis functions                   ...    390
Number of shells                            ...    142
Maximum angular momentum                    ...      3
Integral batch strategy                     ... SHARK/LIBINT Hybrid
RI-J (if used) integral strategy            ... SPLIT-RIJ (Revised 2003 algorithm where possible)
Printlevel                                  ...      1
Contraction scheme used                     ... SEGMENTED contraction
Coulomb Range Separation                    ... NOT USED
Exchange Range Separation                   ... NOT USED
Finite Nucleus Model                        ... NOT USED
Auxiliary Coulomb fitting basis             ... NOT available
Auxiliary J/K fitting basis                 ... NOT available
Auxiliary Correlation fitting basis         ... NOT available
Auxiliary 'external' fitting basis          ... NOT available
Integral threshold                          ...     1.000000e-12
Primitive cut-off                           ...     1.000000e-14
Primitive pair pre-selection threshold      ...     1.000000e-14

Calculating pre-screening integrals         ... done (  0.6 sec) Dimension = 142
Organizing shell pair data                  ... done (  0.1 sec)
Shell pair information
Total number of shell pairs                 ...     10153
Shell pairs after pre-screening             ...      9948
Total number of primitive shell pairs       ...     68150
Primitive shell pairs kept                  ...     41810
          la=0 lb=0:   1924 shell pairs
          la=1 lb=0:   2736 shell pairs
          la=1 lb=1:   1007 shell pairs
          la=2 lb=0:   1572 shell pairs
          la=2 lb=1:   1126 shell pairs
          la=2 lb=2:    341 shell pairs
          la=3 lb=0:    558 shell pairs
          la=3 lb=1:    405 shell pairs
          la=3 lb=2:    234 shell pairs
          la=3 lb=3:     45 shell pairs

Calculating one electron integrals          ... done (  0.2 sec)
Calculating Nuclear repulsion               ... done (  0.0 sec) ENN=    608.560634981978 Eh

SHARK setup successfully completed in   0.9 seconds

Maximum memory used throughout the entire GTOINT-calculation: 46.7 MB


           ************************************************************
           *        Program running with 4 parallel MPI-processes     *
           *              working on a common directory               *
           ************************************************************
-------------------------------------------------------------------------------
                                 ORCA SCF
-------------------------------------------------------------------------------

------------
SCF SETTINGS
------------
Hamiltonian:
 Ab initio Hamiltonian  Method          .... Hartree-Fock(GTOs)


General Settings:
 Integral files         IntName         .... QC_S_MP2
 Hartree-Fock type      HFTyp           .... RHF
 Total Charge           Charge          ....    0
 Multiplicity           Mult            ....    1
 Number of Electrons    NEL             ....   82
 Basis Dimension        Dim             ....  390
 Nuclear Repulsion      ENuc            ....    608.5606349820 Eh

Convergence Acceleration:
 DIIS                   CNVDIIS         .... on
   Start iteration      DIISMaxIt       ....    12
   Startup error        DIISStart       ....  0.200000
   # of expansion vecs  DIISMaxEq       ....     5
   Bias factor          DIISBfac        ....   1.050
   Max. coefficient     DIISMaxC        ....  10.000
 Trust-Rad. Augm. Hess. CNVTRAH         .... auto
   Auto Start mean grad. ratio tolernc. ....  1.125000
   Auto Start start iteration           ....    20
   Auto Start num. interpolation iter.  ....    10
   Max. Number of Micro iterations      ....    16
   Max. Number of Macro iterations      .... Maxiter - #DIIS iter
   Number of Davidson start vectors     ....     2
   Converg. threshold I  (grad. norm)   ....   2.000e-06
   Converg. threshold II (energy diff.) ....   1.000e-09
   Grad. Scal. Fac. for Micro threshold ....   0.100
   Minimum threshold for Micro iter.    ....   0.010
   NR start threshold (gradient norm)   ....   0.001
   Initial trust radius                 ....   0.400
   Minimum AH scaling param. (alpha)    ....   1.000
   Maximum AH scaling param. (alpha)    .... 1000.000
   Orbital update algorithm             .... Taylor
   White noise on init. David. guess    .... on
   Maximum white noise                  ....   0.010
   Quad. conv. algorithm                .... NR
 SOSCF                  CNVSOSCF        .... on
   Start iteration      SOSCFMaxIt      ....   150
   Startup grad/error   SOSCFStart      ....  0.003300
 Level Shifting         CNVShift        .... on
   Level shift para.    LevelShift      ....    0.2500
   Turn off err/grad.   ShiftErr        ....    0.0010
 Zerner damping         CNVZerner       .... off
 Static damping         CNVDamp         .... on
   Fraction old density DampFac         ....    0.7000
   Max. Damping (<1)    DampMax         ....    0.9800
   Min. Damping (>=0)   DampMin         ....    0.0000
   Turn off err/grad.   DampErr         ....    0.1000
 Fernandez-Rico         CNVRico         .... off

SCF Procedure:
 Maximum # iterations   MaxIter         ....   125
 SCF integral mode      SCFMode         .... Direct
   Integral package                     .... SHARK and LIBINT hybrid scheme
 Reset frequency        DirectResetFreq ....    20
 Integral Threshold     Thresh          ....  1.000e-12 Eh
 Primitive CutOff       TCut            ....  1.000e-14 Eh

Convergence Tolerance:
 Convergence Check Mode ConvCheckMode   .... Total+1el-Energy
 Convergence forced     ConvForced      .... 1
 Energy Change          TolE            ....  1.000e-09 Eh
 1-El. energy change                    ....  1.000e-06 Eh
 Orbital Gradient       TolG            ....  2.000e-06
 Orbital Rotation angle TolX            ....  2.000e-06
 DIIS Error             TolErr          ....  1.000e-08


Diagonalization of the overlap matrix:
Smallest eigenvalue                        ... 7.326e-05
Time for diagonalization                   ...    0.276 sec
Threshold for overlap eigenvalues          ... 1.000e-08
Number of eigenvalues below threshold      ... 0
Time for construction of square roots      ...    0.021 sec
Total time needed                          ...    0.298 sec

Time for model grid setup =    0.153 sec

------------------------------
INITIAL GUESS: MODEL POTENTIAL
------------------------------
Loading Hartree-Fock densities                     ... done
Calculating cut-offs                               ... done
Initializing the effective Hamiltonian             ... done
Setting up the integral package (SHARK)            ... done
Starting the Coulomb interaction                   ... done (   0.2 sec)
Reading the grid                                   ... done
Mapping shells                                     ... done
Starting the XC term evaluation                    ... done (   0.1 sec)
Transforming the Hamiltonian                       ... done (   0.0 sec)
Diagonalizing the Hamiltonian                      ... done (   0.0 sec)
Back transforming the eigenvectors                 ... done (   0.0 sec)
Now organizing SCF variables                       ... done
                      ------------------
                      INITIAL GUESS DONE (   0.6 sec)
                      ------------------
--------------
SCF ITERATIONS
--------------
ITER       Energy         Delta-E        Max-DP      RMS-DP      [F,P]     Damp
               ***  Starting incremental Fock matrix formation  ***
  0  -1064.4485108931   0.000000000000 0.05513509  0.00065303  0.2169853 0.7000
  1  -1064.5710413494  -0.122530456373 0.03969264  0.00052413  0.1411532 0.7000
                               ***Turning on DIIS***
  2  -1064.6437716777  -0.072730328248 0.09343286  0.00116781  0.0943521 0.0000
  3  -1063.9475173700   0.696254307729 0.01648791  0.00041459  0.0343581 0.0000
  4  -1064.8806256218  -0.933108251858 0.00880359  0.00018075  0.0066785 0.0000
                      *** Initiating the SOSCF procedure ***
                           *** Shutting down DIIS ***
                      *** Re-Reading the Fockian *** 
                      *** Removing any level shift *** 
ITER      Energy       Delta-E        Grad      Rot      Max-DP    RMS-DP
  5  -1064.80975776   0.0708678645  0.001250  0.001250  0.006447  0.000111
               *** Restarting incremental Fock matrix formation ***
  6  -1064.80052510   0.0092326535  0.000413  0.000648  0.003485  0.000061
  7  -1064.80055070  -0.0000255990  0.000192  0.000507  0.002344  0.000040
  8  -1064.80055511  -0.0000044042  0.000106  0.000096  0.000714  0.000011
  9  -1064.80055589  -0.0000007879  0.000013  0.000017  0.000073  0.000001
 10  -1064.80055591  -0.0000000152  0.000005  0.000010  0.000017  0.000000
 11  -1064.80055591  -0.0000000029  0.000001  0.000004  0.000009  0.000000
                  ***Gradient check signals convergence***
              ***Rediagonalizing the Fockian in SOSCF/NRSCF***

               *****************************************************
               *                     SUCCESS                       *
               *           SCF CONVERGED AFTER  12 CYCLES          *
               *****************************************************


----------------
TOTAL SCF ENERGY
----------------

Total Energy       :        -1064.80055591 Eh          -28974.69617 eV

Components:
Nuclear Repulsion  :          608.56063498 Eh           16559.77676 eV
Electronic Energy  :        -1673.36119090 Eh          -45534.47293 eV
One Electron Energy:        -2674.08409184 Eh          -72765.52747 eV
Two Electron Energy:         1000.72290095 Eh           27231.05453 eV

Virial components:
Potential Energy   :        -2129.46774327 Eh          -57945.76320 eV
Kinetic Energy     :         1064.66718736 Eh           28971.06703 eV
Virial Ratio       :            2.00012527


---------------
SCF CONVERGENCE
---------------

  Last Energy change         ...   -3.8108e-10  Tolerance :   1.0000e-09
  Last MAX-Density change    ...    1.6877e-06  Tolerance :   1.0000e-08
  Last RMS-Density change    ...    3.7097e-08  Tolerance :   1.0000e-09
  Last Orbital Gradient      ...    4.2216e-07  Tolerance :   2.0000e-06
  Last Orbital Rotation      ...    6.5341e-07  Tolerance :   2.0000e-06

             **** THE GBW FILE WAS UPDATED (QC_S_MP2.gbw) ****
             **** DENSITY QC_S_MP2.scfp WAS UPDATED ****
             **** ENERGY FILE WAS UPDATED (QC_S_MP2.en.tmp) ****
             **** THE GBW FILE WAS UPDATED (QC_S_MP2.gbw) ****
             **** DENSITY QC_S_MP2.scfp WAS UPDATED ****
----------------
ORBITAL ENERGIES
----------------

  NO   OCC          E(Eh)            E(eV) 
   0   2.0000     -91.953884     -2502.1924 
   1   2.0000     -91.953880     -2502.1923 
   2   2.0000     -11.267963      -306.6169 
   3   2.0000     -11.267440      -306.6026 
   4   2.0000     -11.245214      -305.9978 
   5   2.0000     -11.244716      -305.9843 
   6   2.0000     -11.243975      -305.9641 
   7   2.0000     -11.243888      -305.9617 
   8   2.0000     -11.231348      -305.6205 
   9   2.0000      -8.956066      -243.7070 
  10   2.0000      -8.956063      -243.7069 
  11   2.0000      -6.637458      -180.6144 
  12   2.0000      -6.637454      -180.6143 
  13   2.0000      -6.636403      -180.5857 
  14   2.0000      -6.636400      -180.5856 
  15   2.0000      -6.635403      -180.5585 
  16   2.0000      -6.635400      -180.5584 
  17   2.0000      -1.275493       -34.7079 
  18   2.0000      -1.089753       -29.6537 
  19   2.0000      -1.033658       -28.1273 
  20   2.0000      -0.987186       -26.8627 
  21   2.0000      -0.966137       -26.2899 
  22   2.0000      -0.847662       -23.0661 
  23   2.0000      -0.795132       -21.6366 
  24   2.0000      -0.772360       -21.0170 
  25   2.0000      -0.705369       -19.1941 
  26   2.0000      -0.690803       -18.7977 
  27   2.0000      -0.617724       -16.8091 
  28   2.0000      -0.598342       -16.2817 
  29   2.0000      -0.596861       -16.2414 
  30   2.0000      -0.568420       -15.4675 
  31   2.0000      -0.543943       -14.8014 
  32   2.0000      -0.521001       -14.1772 
  33   2.0000      -0.503665       -13.7054 
  34   2.0000      -0.481361       -13.0985 
  35   2.0000      -0.455798       -12.4029 
  36   2.0000      -0.426837       -11.6148 
  37   2.0000      -0.408375       -11.1124 
  38   2.0000      -0.355668        -9.6782 
  39   2.0000      -0.348072        -9.4715 
  40   2.0000      -0.346576        -9.4308 
  41   0.0000       0.122634         3.3371 
  42   0.0000       0.150747         4.1020 
  43   0.0000       0.157629         4.2893 
  44   0.0000       0.170219         4.6319 
  45   0.0000       0.180345         4.9074 
  46   0.0000       0.180538         4.9127 
  47   0.0000       0.194322         5.2878 
  48   0.0000       0.200933         5.4677 
  49   0.0000       0.204580         5.5669 
  50   0.0000       0.205649         5.5960 
  51   0.0000       0.223092         6.0706 
  52   0.0000       0.274330         7.4649 
  53   0.0000       0.274705         7.4751 
  54   0.0000       0.291311         7.9270 
  55   0.0000       0.298800         8.1308 
  56   0.0000       0.304104         8.2751 
  57   0.0000       0.305753         8.3200 
  58   0.0000       0.317731         8.6459 
  59   0.0000       0.336324         9.1518 
  60   0.0000       0.369855        10.0643 
  61   0.0000       0.376554        10.2466 
  62   0.0000       0.390424        10.6240 
  63   0.0000       0.391941        10.6652 
  64   0.0000       0.423143        11.5143 
  65   0.0000       0.423364        11.5203 
  66   0.0000       0.437607        11.9079 
  67   0.0000       0.439879        11.9697 
  68   0.0000       0.447954        12.1895 
  69   0.0000       0.464978        12.6527 
  70   0.0000       0.474978        12.9248 
  71   0.0000       0.488467        13.2919 
  72   0.0000       0.514567        14.0021 
  73   0.0000       0.518496        14.1090 
  74   0.0000       0.527877        14.3643 
  75   0.0000       0.535484        14.5713 
  76   0.0000       0.551738        15.0136 
  77   0.0000       0.566920        15.4267 
  78   0.0000       0.573641        15.6096 
  79   0.0000       0.576534        15.6883 
  80   0.0000       0.597098        16.2479 
  81   0.0000       0.599667        16.3178 
  82   0.0000       0.602479        16.3943 
  83   0.0000       0.611694        16.6450 
  84   0.0000       0.618427        16.8283 
  85   0.0000       0.631611        17.1870 
  86   0.0000       0.640822        17.4376 
  87   0.0000       0.641979        17.4691 
  88   0.0000       0.648648        17.6506 
  89   0.0000       0.667895        18.1744 
  90   0.0000       0.667971        18.1764 
  91   0.0000       0.688581        18.7372 
  92   0.0000       0.689758        18.7693 
  93   0.0000       0.718471        19.5506 
  94   0.0000       0.725850        19.7514 
  95   0.0000       0.748866        20.3777 
  96   0.0000       0.772948        21.0330 
  97   0.0000       0.776576        21.1317 
  98   0.0000       0.804451        21.8902 
  99   0.0000       0.821345        22.3499 
 100   0.0000       0.840697        22.8765 
 101   0.0000       0.855356        23.2754 
 102   0.0000       0.884003        24.0550 
 103   0.0000       0.886368        24.1193 
 104   0.0000       0.903636        24.5892 
 105   0.0000       0.912016        24.8172 
 106   0.0000       0.917828        24.9754 
 107   0.0000       0.946901        25.7665 
 108   0.0000       0.970323        26.4038 
 109   0.0000       0.978891        26.6370 
 110   0.0000       0.990368        26.9493 
 111   0.0000       1.009343        27.4656 
 112   0.0000       1.027412        27.9573 
 113   0.0000       1.043274        28.3889 
 114   0.0000       1.058322        28.7984 
 115   0.0000       1.063118        28.9289 
 116   0.0000       1.076557        29.2946 
 117   0.0000       1.105033        30.0695 
 118   0.0000       1.125304        30.6211 
 119   0.0000       1.127388        30.6778 
 120   0.0000       1.140652        31.0387 
 121   0.0000       1.161663        31.6105 
 122   0.0000       1.177504        32.0415 
 123   0.0000       1.179150        32.0863 
 124   0.0000       1.210636        32.9431 
 125   0.0000       1.218679        33.1619 
 126   0.0000       1.235088        33.6085 
 127   0.0000       1.253770        34.1168 
 128   0.0000       1.254275        34.1305 
 129   0.0000       1.262915        34.3657 
 130   0.0000       1.274183        34.6723 
 131   0.0000       1.305012        35.5112 
 132   0.0000       1.312378        35.7116 
 133   0.0000       1.323656        36.0185 
 134   0.0000       1.327631        36.1267 
 135   0.0000       1.331867        36.2419 
 136   0.0000       1.363883        37.1132 
 137   0.0000       1.365085        37.1459 
 138   0.0000       1.383660        37.6513 
 139   0.0000       1.421852        38.6906 
 140   0.0000       1.431435        38.9513 
 141   0.0000       1.444380        39.3036 
 142   0.0000       1.455004        39.5927 
 143   0.0000       1.457559        39.6622 
 144   0.0000       1.476948        40.1898 
 145   0.0000       1.491155        40.5764 
 146   0.0000       1.495408        40.6921 
 147   0.0000       1.510799        41.1109 
 148   0.0000       1.521474        41.4014 
 149   0.0000       1.531171        41.6653 
 150   0.0000       1.555169        42.3183 
 151   0.0000       1.572420        42.7877 
 152   0.0000       1.575989        42.8848 
 153   0.0000       1.588880        43.2356 
 154   0.0000       1.599628        43.5281 
 155   0.0000       1.608270        43.7632 
 156   0.0000       1.637877        44.5689 
 157   0.0000       1.641486        44.6671 
 158   0.0000       1.647679        44.8356 
 159   0.0000       1.683721        45.8164 
 160   0.0000       1.698219        46.2109 
 161   0.0000       1.730618        47.0925 
 162   0.0000       1.741936        47.4005 
 163   0.0000       1.778296        48.3899 
 164   0.0000       1.808895        49.2225 
 165   0.0000       1.815608        49.4052 
 166   0.0000       1.827920        49.7402 
 167   0.0000       1.857706        50.5508 
 168   0.0000       1.888904        51.3997 
 169   0.0000       1.900317        51.7103 
 170   0.0000       1.910161        51.9781 
 171   0.0000       1.932155        52.5766 
 172   0.0000       1.976225        53.7758 
 173   0.0000       1.985535        54.0291 
 174   0.0000       1.986760        54.0625 
 175   0.0000       1.995164        54.2912 
 176   0.0000       2.013832        54.7992 
 177   0.0000       2.017766        54.9062 
 178   0.0000       2.076284        56.4986 
 179   0.0000       2.086354        56.7726 
 180   0.0000       2.110677        57.4344 
 181   0.0000       2.125134        57.8278 
 182   0.0000       2.127390        57.8892 
 183   0.0000       2.145119        58.3717 
 184   0.0000       2.158002        58.7222 
 185   0.0000       2.173195        59.1356 
 186   0.0000       2.190987        59.6198 
 187   0.0000       2.191385        59.6306 
 188   0.0000       2.229742        60.6744 
 189   0.0000       2.240703        60.9726 
 190   0.0000       2.269028        61.7434 
 191   0.0000       2.289177        62.2917 
 192   0.0000       2.315010        62.9946 
 193   0.0000       2.380678        64.7815 
 194   0.0000       2.382785        64.8389 
 195   0.0000       2.414387        65.6988 
 196   0.0000       2.423981        65.9599 
 197   0.0000       2.446204        66.5646 
 198   0.0000       2.514247        68.4161 
 199   0.0000       2.527070        68.7651 
 200   0.0000       2.559777        69.6551 
 201   0.0000       2.584044        70.3154 
 202   0.0000       2.604901        70.8830 
 203   0.0000       2.623117        71.3786 
 204   0.0000       2.700181        73.4757 
 205   0.0000       2.711118        73.7733 
 206   0.0000       2.726205        74.1838 
 207   0.0000       2.738902        74.5293 
 208   0.0000       2.748869        74.8005 
 209   0.0000       2.767998        75.3211 
 210   0.0000       2.773038        75.4582 
 211   0.0000       2.810531        76.4784 
 212   0.0000       2.830071        77.0101 
 213   0.0000       2.836284        77.1792 
 214   0.0000       2.855986        77.7153 
 215   0.0000       2.864531        77.9479 
 216   0.0000       2.881727        78.4158 
 217   0.0000       2.888862        78.6099 
 218   0.0000       2.911627        79.2294 
 219   0.0000       2.911862        79.2358 
 220   0.0000       2.925868        79.6169 
 221   0.0000       2.965214        80.6876 
 222   0.0000       2.975582        80.9697 
 223   0.0000       2.982024        81.1450 
 224   0.0000       3.031172        82.4824 
 225   0.0000       3.034121        82.5626 
 226   0.0000       3.041394        82.7605 
 227   0.0000       3.048241        82.9469 
 228   0.0000       3.077398        83.7403 
 229   0.0000       3.091523        84.1246 
 230   0.0000       3.123408        84.9923 
 231   0.0000       3.137432        85.3739 
 232   0.0000       3.157473        85.9192 
 233   0.0000       3.186930        86.7208 
 234   0.0000       3.197465        87.0074 
 235   0.0000       3.222974        87.7016 
 236   0.0000       3.230522        87.9070 
 237   0.0000       3.234108        88.0046 
 238   0.0000       3.252583        88.5073 
 239   0.0000       3.265795        88.8668 
 240   0.0000       3.297266        89.7232 
 241   0.0000       3.305596        89.9498 
 242   0.0000       3.314648        90.1962 
 243   0.0000       3.323658        90.4413 
 244   0.0000       3.350369        91.1682 
 245   0.0000       3.357042        91.3498 
 246   0.0000       3.360848        91.4533 
 247   0.0000       3.384295        92.0913 
 248   0.0000       3.398491        92.4776 
 249   0.0000       3.405571        92.6703 
 250   0.0000       3.445663        93.7612 
 251   0.0000       3.454868        94.0117 
 252   0.0000       3.479625        94.6854 
 253   0.0000       3.494627        95.0936 
 254   0.0000       3.501951        95.2929 
 255   0.0000       3.533716        96.1573 
 256   0.0000       3.557214        96.7967 
 257   0.0000       3.565734        97.0286 
 258   0.0000       3.573010        97.2265 
 259   0.0000       3.577191        97.3403 
 260   0.0000       3.592637        97.7606 
 261   0.0000       3.594923        97.8228 
 262   0.0000       3.611731        98.2802 
 263   0.0000       3.627160        98.7000 
 264   0.0000       3.634411        98.8974 
 265   0.0000       3.642753        99.1243 
 266   0.0000       3.660081        99.5959 
 267   0.0000       3.674130        99.9782 
 268   0.0000       3.675127       100.0053 
 269   0.0000       3.697369       100.6105 
 270   0.0000       3.732588       101.5689 
 271   0.0000       3.755086       102.1811 
 272   0.0000       3.763953       102.4224 
 273   0.0000       3.772054       102.6428 
 274   0.0000       3.791418       103.1697 
 275   0.0000       3.826116       104.1139 
 276   0.0000       3.834024       104.3291 
 277   0.0000       3.840765       104.5125 
 278   0.0000       3.873155       105.3939 
 279   0.0000       3.908688       106.3608 
 280   0.0000       3.916949       106.5856 
 281   0.0000       3.927269       106.8664 
 282   0.0000       3.931582       106.9838 
 283   0.0000       3.961389       107.7949 
 284   0.0000       3.975538       108.1799 
 285   0.0000       3.988394       108.5297 
 286   0.0000       3.995555       108.7246 
 287   0.0000       4.013222       109.2053 
 288   0.0000       4.036741       109.8453 
 289   0.0000       4.055703       110.3613 
 290   0.0000       4.066944       110.6672 
 291   0.0000       4.071998       110.8047 
 292   0.0000       4.078749       110.9884 
 293   0.0000       4.099132       111.5430 
 294   0.0000       4.108810       111.8064 
 295   0.0000       4.120164       112.1154 
 296   0.0000       4.133887       112.4888 
 297   0.0000       4.159237       113.1786 
 298   0.0000       4.183730       113.8451 
 299   0.0000       4.198590       114.2494 
 300   0.0000       4.213201       114.6470 
 301   0.0000       4.234802       115.2348 
 302   0.0000       4.240199       115.3817 
 303   0.0000       4.246135       115.5432 
 304   0.0000       4.255047       115.7857 
 305   0.0000       4.274055       116.3030 
 306   0.0000       4.284953       116.5995 
 307   0.0000       4.307872       117.2231 
 308   0.0000       4.311487       117.3215 
 309   0.0000       4.328152       117.7750 
 310   0.0000       4.328364       117.7808 
 311   0.0000       4.360025       118.6423 
 312   0.0000       4.370937       118.9392 
 313   0.0000       4.385655       119.3397 
 314   0.0000       4.400618       119.7469 
 315   0.0000       4.405613       119.8828 
 316   0.0000       4.414436       120.1229 
 317   0.0000       4.435992       120.7095 
 318   0.0000       4.443109       120.9031 
 319   0.0000       4.455821       121.2491 
 320   0.0000       4.465673       121.5171 
 321   0.0000       4.481646       121.9518 
 322   0.0000       4.508947       122.6947 
 323   0.0000       4.518878       122.9649 
 324   0.0000       4.532951       123.3479 
 325   0.0000       4.562938       124.1639 
 326   0.0000       4.575329       124.5010 
 327   0.0000       4.580364       124.6380 
 328   0.0000       4.584849       124.7601 
 329   0.0000       4.602704       125.2460 
 330   0.0000       4.621860       125.7672 
 331   0.0000       4.622673       125.7893 
 332   0.0000       4.657243       126.7300 
 333   0.0000       4.693774       127.7241 
 334   0.0000       4.730398       128.7207 
 335   0.0000       4.746495       129.1587 
 336   0.0000       4.758455       129.4842 
 337   0.0000       4.778278       130.0235 
 338   0.0000       4.787941       130.2865 
 339   0.0000       4.846817       131.8886 
 340   0.0000       4.863603       132.3454 
 341   0.0000       4.873723       132.6208 
 342   0.0000       4.902499       133.4038 
 343   0.0000       4.957691       134.9056 
 344   0.0000       4.961253       135.0025 
 345   0.0000       4.984418       135.6329 
 346   0.0000       5.005564       136.2083 
 347   0.0000       5.006694       136.2391 
 348   0.0000       5.082573       138.3039 
 349   0.0000       5.120286       139.3301 
 350   0.0000       5.140828       139.8890 
 351   0.0000       5.196643       141.4079 
 352   0.0000       5.219169       142.0208 
 353   0.0000       5.245294       142.7317 
 354   0.0000       5.281451       143.7156 
 355   0.0000       5.355953       145.7429 
 356   0.0000       5.374419       146.2454 
 357   0.0000       5.388406       146.6260 
 358   0.0000       5.398153       146.8912 
 359   0.0000       5.414575       147.3381 
 360   0.0000       5.451338       148.3385 
 361   0.0000       5.499054       149.6369 
 362   0.0000       5.550195       151.0285 
 363   0.0000       5.589770       152.1054 
 364   0.0000       5.593137       152.1970 
 365   0.0000       5.624791       153.0583 
 366   0.0000       5.630896       153.2245 
 367   0.0000       5.642302       153.5348 
 368   0.0000       5.705089       155.2434 
 369   0.0000       5.729468       155.9068 
 370   0.0000       5.838551       158.8751 
 371   0.0000       5.902231       160.6079 
 372   0.0000       5.961858       162.2304 
 373   0.0000       5.981144       162.7552 
 374   0.0000       6.025505       163.9623 
 375   0.0000       6.088498       165.6765 
 376   0.0000       6.169360       167.8768 
 377   0.0000       6.190683       168.4570 
 378   0.0000       6.276660       170.7966 
 379   0.0000       6.367134       173.2585 
 380   0.0000       6.406071       174.3180 
 381   0.0000       6.560276       178.5142 
 382   0.0000       6.755577       183.8286 
 383   0.0000      10.574335       287.7423 
 384   0.0000      12.274817       334.0148 
 385   0.0000      12.299750       334.6932 
 386   0.0000      12.922913       351.6503 
 387   0.0000      12.971867       352.9824 
 388   0.0000      13.649912       371.4330 
 389   0.0000      13.855078       377.0159 

                    ********************************
                    * MULLIKEN POPULATION ANALYSIS *
                    ********************************

-----------------------
MULLIKEN ATOMIC CHARGES
-----------------------
   0 C :   -0.178271
   1 C :   -0.178265
   2 C :   -0.110612
   3 C :    0.027712
   4 C :    0.027758
   5 C :   -0.110598
   6 S :   -0.151028
   7 C :   -0.192224
   8 H :    0.146482
   9 H :    0.146463
  10 H :    0.110689
  11 H :    0.107733
  12 H :    0.161190
  13 H :    0.161194
  14 S :   -0.151048
  15 H :    0.091412
  16 H :    0.091413
Sum of atomic charges:   -0.0000000

--------------------------------
MULLIKEN REDUCED ORBITAL CHARGES
--------------------------------
  0 C s       :     3.267621  s :     3.267621
      pz      :     0.955759  p :     2.781018
      px      :     0.910081
      py      :     0.915178
      dz2     :     0.024419  d :     0.118142
      dxz     :     0.023129
      dyz     :     0.022063
      dx2y2   :     0.026998
      dxy     :     0.021534
      f0      :     0.001861  f :     0.011490
      f+1     :     0.001881
      f-1     :     0.001352
      f+2     :     0.001616
      f-2     :     0.001251
      f+3     :     0.001714
      f-3     :     0.001815
  1 C s       :     3.267592  s :     3.267592
      pz      :     0.969855  p :     2.781044
      px      :     0.891376
      py      :     0.919813
      dz2     :     0.023049  d :     0.118140
      dxz     :     0.021440
      dyz     :     0.023713
      dx2y2   :     0.028370
      dxy     :     0.021568
      f0      :     0.001708  f :     0.011490
      f+1     :     0.001864
      f-1     :     0.001492
      f+2     :     0.001985
      f-2     :     0.001010
      f+3     :     0.001840
      f-3     :     0.001592
  2 C s       :     3.224623  s :     3.224623
      pz      :     0.797720  p :     2.747826
      px      :     0.965289
      py      :     0.984817
      dz2     :     0.034645  d :     0.126888
      dxz     :     0.032929
      dyz     :     0.019214
      dx2y2   :     0.026282
      dxy     :     0.013818
      f0      :     0.002035  f :     0.011276
      f+1     :     0.001640
      f-1     :     0.002323
      f+2     :     0.001619
      f-2     :     0.001701
      f+3     :     0.000634
      f-3     :     0.001323
  3 C s       :     3.202937  s :     3.202937
      pz      :     1.036946  p :     2.600284
      px      :     0.716706
      py      :     0.846632
      dz2     :     0.021775  d :     0.156779
      dxz     :     0.031721
      dyz     :     0.028417
      dx2y2   :     0.044866
      dxy     :     0.030001
      f0      :     0.001338  f :     0.012289
      f+1     :     0.001836
      f-1     :     0.000942
      f+2     :     0.002080
      f-2     :     0.001397
      f+3     :     0.002267
      f-3     :     0.002428
  4 C s       :     3.203003  s :     3.203003
      pz      :     1.040305  p :     2.600156
      px      :     0.735346
      py      :     0.824506
      dz2     :     0.023171  d :     0.156793
      dxz     :     0.033105
      dyz     :     0.025331
      dx2y2   :     0.045240
      dxy     :     0.029947
      f0      :     0.001327  f :     0.012289
      f+1     :     0.001852
      f-1     :     0.001053
      f+2     :     0.001905
      f-2     :     0.001397
      f+3     :     0.002518
      f-3     :     0.002237
  5 C s       :     3.224616  s :     3.224616
      pz      :     0.797349  p :     2.747829
      px      :     0.963907
      py      :     0.986573
      dz2     :     0.032459  d :     0.126877
      dxz     :     0.031441
      dyz     :     0.022551
      dx2y2   :     0.027907
      dxy     :     0.012521
      f0      :     0.002301  f :     0.011275
      f+1     :     0.001753
      f-1     :     0.001975
      f+2     :     0.002028
      f-2     :     0.001313
      f+3     :     0.000666
      f-3     :     0.001240
  6 S s       :     5.816088  s :     5.816088
      pz      :     3.376336  p :    10.187050
      px      :     3.320031
      py      :     3.490682
      dz2     :     0.025822  d :     0.135147
      dxz     :     0.049824
      dyz     :     0.016871
      dx2y2   :     0.014163
      dxy     :     0.028468
      f0      :     0.000991  f :     0.012742
      f+1     :     0.003980
      f-1     :     0.000893
      f+2     :     0.001310
      f-2     :     0.001829
      f+3     :     0.001963
      f-3     :     0.001776
  7 C s       :     3.233317  s :     3.233317
      pz      :     0.935214  p :     2.830782
      px      :     1.020691
      py      :     0.874878
      dz2     :     0.017464  d :     0.120040
      dxz     :     0.034596
      dyz     :     0.025326
      dx2y2   :     0.026000
      dxy     :     0.016654
      f0      :     0.000685  f :     0.008084
      f+1     :     0.000777
      f-1     :     0.001561
      f+2     :     0.002381
      f-2     :     0.001360
      f+3     :     0.000656
      f-3     :     0.000663
  8 H s       :     0.820053  s :     0.820053
      pz      :     0.009265  p :     0.030817
      px      :     0.010556
      py      :     0.010997
      dz2     :     0.000254  d :     0.002648
      dxz     :     0.000115
      dyz     :     0.000901
      dx2y2   :     0.000543
      dxy     :     0.000835
  9 H s       :     0.820070  s :     0.820070
      pz      :     0.009408  p :     0.030819
      px      :     0.010556
      py      :     0.010856
      dz2     :     0.000373  d :     0.002648
      dxz     :     0.000215
      dyz     :     0.000769
      dx2y2   :     0.000629
      dxy     :     0.000663
 10 H s       :     0.857441  s :     0.857441
      pz      :     0.009824  p :     0.029331
      px      :     0.010718
      py      :     0.008788
      dz2     :     0.000280  d :     0.002539
      dxz     :     0.000770
      dyz     :     0.000250
      dx2y2   :     0.000489
      dxy     :     0.000749
 11 H s       :     0.860911  s :     0.860911
      pz      :     0.012242  p :     0.028835
      px      :     0.008169
      py      :     0.008424
      dz2     :     0.000705  d :     0.002522
      dxz     :     0.000534
      dyz     :     0.000726
      dx2y2   :     0.000278
      dxy     :     0.000278
 12 H s       :     0.808035  s :     0.808035
      pz      :     0.010326  p :     0.028550
      px      :     0.008622
      py      :     0.009602
      dz2     :     0.000687  d :     0.002226
      dxz     :     0.000321
      dyz     :     0.000473
      dx2y2   :     0.000451
      dxy     :     0.000295
 13 H s       :     0.808037  s :     0.808037
      pz      :     0.010037  p :     0.028543
      px      :     0.008998
      py      :     0.009508
      dz2     :     0.000627  d :     0.002225
      dxz     :     0.000344
      dyz     :     0.000381
      dx2y2   :     0.000544
      dxy     :     0.000330
 14 S s       :     5.816087  s :     5.816087
      pz      :     3.350084  p :    10.187061
      px      :     3.121699
      py      :     3.715277
      dz2     :     0.023860  d :     0.135157
      dxz     :     0.061618
      dyz     :     0.011093
      dx2y2   :     0.015518
      dxy     :     0.023067
      f0      :     0.000903  f :     0.012743
      f+1     :     0.004475
      f-1     :     0.000481
      f+2     :     0.001614
      f-2     :     0.001839
      f+3     :     0.001270
      f-3     :     0.002162
 15 H s       :     0.862179  s :     0.862179
      pz      :     0.015535  p :     0.044299
      px      :     0.013714
      py      :     0.015050
      dz2     :     0.000506  d :     0.002110
      dxz     :     0.000603
      dyz     :     0.000474
      dx2y2   :     0.000251
      dxy     :     0.000276
 16 H s       :     0.862176  s :     0.862176
      pz      :     0.016488  p :     0.044302
      px      :     0.015439
      py      :     0.012375
      dz2     :     0.000562  d :     0.002110
      dxz     :     0.000630
      dyz     :     0.000431
      dx2y2   :     0.000206
      dxy     :     0.000280


                     *******************************
                     * LOEWDIN POPULATION ANALYSIS *
                     *******************************

----------------------
LOEWDIN ATOMIC CHARGES
----------------------
   0 C :    0.058960
   1 C :    0.058981
   2 C :    0.029023
   3 C :   -0.283531
   4 C :   -0.283527
   5 C :    0.029030
   6 S :    0.410644
   7 C :    0.071615
   8 H :   -0.030377
   9 H :   -0.030382
  10 H :   -0.022990
  11 H :   -0.024391
  12 H :   -0.044064
  13 H :   -0.044062
  14 S :    0.410646
  15 H :   -0.152791
  16 H :   -0.152784

-------------------------------
LOEWDIN REDUCED ORBITAL CHARGES
-------------------------------
  0 C s       :     2.648470  s :     2.648470
      pz      :     0.927364  p :     2.738023
      px      :     0.906851
      py      :     0.903808
      dz2     :     0.085922  d :     0.492529
      dxz     :     0.103315
      dyz     :     0.101961
      dx2y2   :     0.098295
      dxy     :     0.103035
      f0      :     0.010234  f :     0.062018
      f+1     :     0.009931
      f-1     :     0.007318
      f+2     :     0.008915
      f-2     :     0.004514
      f+3     :     0.010833
      f-3     :     0.010274
  1 C s       :     2.648487  s :     2.648487
      pz      :     0.934681  p :     2.738017
      px      :     0.894433
      py      :     0.908903
      dz2     :     0.082769  d :     0.492498
      dxz     :     0.097288
      dyz     :     0.109903
      dx2y2   :     0.100361
      dxy     :     0.102177
      f0      :     0.010006  f :     0.062017
      f+1     :     0.009109
      f-1     :     0.006955
      f+2     :     0.010891
      f-2     :     0.003657
      f+3     :     0.010947
      f-3     :     0.010451
  2 C s       :     2.644760  s :     2.644760
      pz      :     0.881088  p :     2.745129
      px      :     0.914501
      py      :     0.949540
      dz2     :     0.134418  d :     0.520213
      dxz     :     0.111932
      dyz     :     0.109273
      dx2y2   :     0.112182
      dxy     :     0.052409
      f0      :     0.011875  f :     0.060875
      f+1     :     0.009923
      f-1     :     0.011207
      f+2     :     0.007664
      f-2     :     0.010005
      f+3     :     0.003982
      f-3     :     0.006220
  3 C s       :     2.693424  s :     2.693424
      pz      :     1.002040  p :     2.872160
      px      :     0.933925
      py      :     0.936194
      dz2     :     0.094189  d :     0.647506
      dxz     :     0.122441
      dyz     :     0.099074
      dx2y2   :     0.182372
      dxy     :     0.149430
      f0      :     0.006597  f :     0.070442
      f+1     :     0.010263
      f-1     :     0.004753
      f+2     :     0.014072
      f-2     :     0.007451
      f+3     :     0.014581
      f-3     :     0.012725
  4 C s       :     2.693421  s :     2.693421
      pz      :     1.000769  p :     2.872121
      px      :     0.927584
      py      :     0.943768
      dz2     :     0.098737  d :     0.647541
      dxz     :     0.113048
      dyz     :     0.099247
      dx2y2   :     0.179284
      dxy     :     0.157225
      f0      :     0.006974  f :     0.070445
      f+1     :     0.009887
      f-1     :     0.004805
      f+2     :     0.014090
      f-2     :     0.008102
      f+3     :     0.013239
      f-3     :     0.013348
  5 C s       :     2.644761  s :     2.644761
      pz      :     0.880608  p :     2.745141
      px      :     0.912879
      py      :     0.951654
      dz2     :     0.126245  d :     0.520195
      dxz     :     0.107875
      dyz     :     0.122104
      dx2y2   :     0.108661
      dxy     :     0.055310
      f0      :     0.012721  f :     0.060872
      f+1     :     0.011461
      f-1     :     0.010310
      f+2     :     0.006770
      f-2     :     0.008703
      f+3     :     0.004782
      f-3     :     0.006126
  6 S s       :     5.337406  s :     5.337406
      pz      :     3.341597  p :     9.986239
      px      :     3.233336
      py      :     3.411306
      dz2     :     0.035940  d :     0.232387
      dxz     :     0.079553
      dyz     :     0.030571
      dx2y2   :     0.033690
      dxy     :     0.052633
      f0      :     0.003258  f :     0.033323
      f+1     :     0.008998
      f-1     :     0.003061
      f+2     :     0.002929
      f-2     :     0.005386
      f+3     :     0.005107
      f-3     :     0.004585
  7 C s       :     2.644252  s :     2.644252
      pz      :     0.923065  p :     2.794664
      px      :     0.964620
      py      :     0.906979
      dz2     :     0.064608  d :     0.442895
      dxz     :     0.115912
      dyz     :     0.102559
      dx2y2   :     0.098065
      dxy     :     0.061751
      f0      :     0.005701  f :     0.046574
      f+1     :     0.004089
      f-1     :     0.010959
      f+2     :     0.007420
      f-2     :     0.008633
      f+3     :     0.005158
      f-3     :     0.004614
  8 H s       :     0.841641  s :     0.841641
      pz      :     0.036218  p :     0.159503
      px      :     0.046073
      py      :     0.077212
      dz2     :     0.003132  d :     0.029234
      dxz     :     0.000914
      dyz     :     0.008117
      dx2y2   :     0.007733
      dxy     :     0.009339
  9 H s       :     0.841641  s :     0.841641
      pz      :     0.038463  p :     0.159507
      px      :     0.047291
      py      :     0.073753
      dz2     :     0.003715  d :     0.029235
      dxz     :     0.001794
      dyz     :     0.008026
      dx2y2   :     0.007536
      dxy     :     0.008164
 10 H s       :     0.840832  s :     0.840832
      pz      :     0.041881  p :     0.153647
      px      :     0.070042
      py      :     0.041724
      dz2     :     0.003418  d :     0.028510
      dxz     :     0.008819
      dyz     :     0.001898
      dx2y2   :     0.006888
      dxy     :     0.007487
 11 H s       :     0.842388  s :     0.842388
      pz      :     0.058542  p :     0.153528
      px      :     0.053850
      py      :     0.041136
      dz2     :     0.007919  d :     0.028475
      dxz     :     0.007211
      dyz     :     0.006273
      dx2y2   :     0.003935
      dxy     :     0.003137
 12 H s       :     0.850822  s :     0.850822
      pz      :     0.061327  p :     0.164268
      px      :     0.048181
      py      :     0.054761
      dz2     :     0.008326  d :     0.028974
      dxz     :     0.004533
      dyz     :     0.006732
      dx2y2   :     0.004647
      dxy     :     0.004736
 13 H s       :     0.850827  s :     0.850827
      pz      :     0.056796  p :     0.164263
      px      :     0.055102
      py      :     0.052364
      dz2     :     0.007338  d :     0.028973
      dxz     :     0.004832
      dyz     :     0.005668
      dx2y2   :     0.005923
      dxy     :     0.005212
 14 S s       :     5.337388  s :     5.337388
      pz      :     3.328951  p :     9.986233
      px      :     3.069574
      py      :     3.587708
      dz2     :     0.033737  d :     0.232407
      dxz     :     0.098988
      dyz     :     0.019261
      dx2y2   :     0.036208
      dxy     :     0.044214
      f0      :     0.003015  f :     0.033326
      f+1     :     0.011473
      f-1     :     0.001598
      f+2     :     0.003730
      f-2     :     0.005000
      f+3     :     0.003871
      f-3     :     0.004640
 15 H s       :     0.920550  s :     0.920550
      pz      :     0.094255  p :     0.207533
      px      :     0.053973
      py      :     0.059305
      dz2     :     0.007467  d :     0.024709
      dxz     :     0.006605
      dyz     :     0.005700
      dx2y2   :     0.002111
      dxy     :     0.002825
 16 H s       :     0.920543  s :     0.920543
      pz      :     0.096154  p :     0.207532
      px      :     0.061615
      py      :     0.049763
      dz2     :     0.008133  d :     0.024709
      dxz     :     0.006886
      dyz     :     0.004984
      dx2y2   :     0.002267
      dxy     :     0.002439


                      *****************************
                      * MAYER POPULATION ANALYSIS *
                      *****************************

  NA   - Mulliken gross atomic population
  ZA   - Total nuclear charge
  QA   - Mulliken gross atomic charge
  VA   - Mayer's total valence
  BVA  - Mayer's bonded valence
  FA   - Mayer's free valence

  ATOM       NA         ZA         QA         VA         BVA        FA
  0 C      6.1783     6.0000    -0.1783     3.7014     3.7014    -0.0000
  1 C      6.1783     6.0000    -0.1783     3.7015     3.7015    -0.0000
  2 C      6.1106     6.0000    -0.1106     3.7206     3.7206     0.0000
  3 C      5.9723     6.0000     0.0277     3.6290     3.6290     0.0000
  4 C      5.9722     6.0000     0.0278     3.6291     3.6291    -0.0000
  5 C      6.1106     6.0000    -0.1106     3.7206     3.7206     0.0000
  6 S     16.1510    16.0000    -0.1510     2.0630     2.0630     0.0000
  7 C      6.1922     6.0000    -0.1922     3.9197     3.9197    -0.0000
  8 H      0.8535     1.0000     0.1465     0.9924     0.9924     0.0000
  9 H      0.8535     1.0000     0.1465     0.9924     0.9924     0.0000
 10 H      0.8893     1.0000     0.1107     0.9862     0.9862    -0.0000
 11 H      0.8923     1.0000     0.1077     0.9845     0.9845    -0.0000
 12 H      0.8388     1.0000     0.1612     0.9795     0.9795    -0.0000
 13 H      0.8388     1.0000     0.1612     0.9795     0.9795    -0.0000
 14 S     16.1510    16.0000    -0.1510     2.0630     2.0630    -0.0000
 15 H      0.9086     1.0000     0.0914     1.0147     1.0147    -0.0000
 16 H      0.9086     1.0000     0.0914     1.0147     1.0147     0.0000

  Mayer bond orders larger than 0.100000
B(  0-C ,  1-C ) :   0.9329 B(  0-C ,  4-C ) :   0.8859 B(  0-C ,  5-C ) :   0.9469 
B(  0-C , 13-H ) :   0.9584 B(  1-C ,  2-C ) :   0.9470 B(  1-C ,  3-C ) :   0.8859 
B(  1-C , 12-H ) :   0.9585 B(  2-C ,  3-C ) :   0.8702 B(  2-C ,  7-C ) :   0.9687 
B(  2-C ,  8-H ) :   0.9701 B(  3-C ,  4-C ) :   0.8906 B(  3-C , 14-S ) :   1.0175 
B(  4-C ,  5-C ) :   0.8702 B(  4-C ,  6-S ) :   1.0175 B(  5-C ,  7-C ) :   0.9687 
B(  5-C ,  9-H ) :   0.9701 B(  6-S , 16-H ) :   1.0115 B(  7-C , 10-H ) :   0.9883 
B(  7-C , 11-H ) :   0.9888 B( 14-S , 15-H ) :   1.0115 

-------
TIMINGS
-------

Total SCF time: 0 days 0 hours 7 min 2 sec 

Total time                  ....     422.743 sec
Sum of individual times     ....     422.055 sec  ( 99.8%)

[...]
     30      -0.081108   0.014586  -0.001400  -0.076144  -0.046183   0.022131
     31       0.681879  -0.122682   0.006248   0.640124   0.348591   0.061605
     32       0.046599  -0.008346  -0.096678   0.043745   0.044711  -0.126901
     33       0.081604   0.006182   0.052345  -0.075557  -0.049783   0.032526
     34      -0.686064  -0.052113   0.010226   0.635100   0.364693   0.065395
     35      -0.046899  -0.003517  -0.061865   0.043407   0.046147  -0.128672
     36       0.017473  -0.177131  -0.271534   0.051025  -0.141719  -0.029471
     37       0.000319   0.402626   0.354268  -0.020096   0.313971   0.037352
     38      -0.022023  -0.246088  -0.246106  -0.075493   0.014620  -0.149445
     39      -0.016916   0.082067  -0.185110  -0.043784   0.068325  -0.003584
     40      -0.006802   0.396128  -0.371491  -0.041594   0.329691   0.071482
     41       0.021655   0.300464  -0.295473   0.071154   0.076332  -0.138605
     42       0.000615  -0.000169   0.007728  -0.005093   0.012099  -0.008178
     43       0.000431   0.000956  -0.005067   0.003097  -0.004871   0.006360
     44       0.000788  -0.001235  -0.006294   0.000646  -0.002915   0.001297
     45       0.015866  -0.008876  -0.010868  -0.030261   0.061799  -0.049579
     46      -0.017274  -0.002363  -0.009065   0.015476  -0.041475   0.025818
     47      -0.011484   0.003855   0.001916   0.020003  -0.046460   0.035320
     48      -0.011219   0.009051  -0.012629   0.025473  -0.034502  -0.053504
     49      -0.021886   0.000232   0.005960   0.024652  -0.045115  -0.056123
     50       0.008810  -0.003946   0.002926  -0.017248   0.028156   0.040294
                 42         43         44         45         46         47    
      0      -0.001263   0.000776   0.000807   0.000254  -0.000053   0.008379
      1       0.003616   0.000030   0.000272  -0.000006   0.000001  -0.010162
      2       0.003169   0.000089   0.000256  -0.000155   0.000409   0.009646
      3      -0.000330  -0.000774   0.000843   0.000243  -0.000045  -0.005887
      4      -0.004203  -0.000139  -0.000109   0.000086  -0.000068  -0.010375
      5       0.002638  -0.000100   0.000229  -0.000149   0.000405  -0.010996
      6      -0.000290  -0.000117   0.000025   0.000087  -0.001052  -0.002956
      7       0.012305   0.000021  -0.000071   0.001699  -0.000087   0.057353
      8      -0.000928  -0.000183   0.000181  -0.001019  -0.000316  -0.012184
      9      -0.001718   0.001216  -0.001300   0.000048   0.000414  -0.000452
     10      -0.002880  -0.000172   0.000119  -0.000051  -0.000022  -0.000231
     11       0.003158  -0.000222  -0.000226  -0.000286  -0.000504   0.000038
     12      -0.002288  -0.001122  -0.001255   0.000030   0.000389   0.000507
     13       0.001950  -0.000474  -0.000395   0.000098   0.000185  -0.000108
     14       0.003486   0.000180  -0.000259  -0.000276  -0.000490  -0.000069
     15       0.002576   0.000111   0.000012   0.000464  -0.001048  -0.010465
     16      -0.011799   0.000023   0.000050  -0.001479  -0.000119   0.055036
     17      -0.002568   0.000184   0.000191  -0.001236  -0.000319   0.020081
     18       0.000235  -0.011760  -0.011892  -0.000026   0.000018   0.000008
     19       0.000129  -0.001277  -0.001308  -0.000008  -0.000005  -0.000041
     20      -0.000331  -0.018685  -0.018901   0.000010  -0.000011  -0.000020
     21       0.023901  -0.000011  -0.000034  -0.011489  -0.091912   0.000275
     22       0.009030   0.000095  -0.000009  -0.005867  -0.009543  -0.002385
     23      -0.090444   0.000006   0.000085   0.065834  -0.020344  -0.000130
     24       0.003293   0.001597  -0.001198   0.000609   0.000870   0.032094
     25       0.013099   0.000404  -0.000148  -0.030499  -0.000777  -0.658051
     26      -0.023991  -0.000739   0.000897   0.010059   0.000514   0.143244
     27       0.005880  -0.001619  -0.001208  -0.006366   0.000672   0.121790
     28      -0.008630  -0.000078  -0.000258   0.028165   0.000883  -0.630450
     29      -0.025486   0.000750   0.000899   0.014065   0.000628  -0.233795
     30       0.282048   0.000050  -0.000661   0.623059   0.686701   0.000010
     31      -0.010173  -0.000389  -0.000075   0.088788   0.099920   0.001427
     32       0.639608  -0.000026  -0.000099  -0.214564  -0.266622   0.000016
     33      -0.557262  -0.000001   0.000408  -0.489878   0.418464  -0.000409
     34      -0.095330  -0.000010   0.000003  -0.020159   0.014721   0.002446
     35       0.424740  -0.000005   0.000660  -0.557592   0.512888   0.000004
     36       0.002383  -0.000800   0.000427  -0.001211   0.001722   0.075970
     37       0.010001  -0.000843   0.000111  -0.001511   0.001429   0.115158
     38      -0.011266  -0.000344   0.000547  -0.000607   0.002955   0.127225
     39       0.004479   0.000975   0.000463  -0.001540   0.002058  -0.103555
     40      -0.007552  -0.000671  -0.000090   0.001252  -0.001372   0.110975
     41      -0.012472   0.000235   0.000539  -0.000416   0.002765  -0.112553
     42       0.000253   0.012189  -0.012009  -0.000027   0.000016   0.000002
     43      -0.000025  -0.001009   0.001010   0.000001   0.000010  -0.000043
     44      -0.000342   0.018776  -0.018495   0.000010  -0.000010   0.000014
     45      -0.000791  -0.393911   0.388745   0.000233   0.000147   0.000084
     46      -0.000458   0.035526  -0.035776   0.000080  -0.000082  -0.000356
     47       0.000610  -0.591327   0.583524   0.000585  -0.000177  -0.000741
     48      -0.000867   0.379106   0.383980   0.000255   0.000121   0.000011
     49       0.000174   0.046096   0.047415  -0.000102   0.000137  -0.000467
     50       0.000654   0.589112   0.597000   0.000573  -0.000162   0.000693
                 48         49         50    
      0      -0.004047  -0.032914   0.034042
      1       0.005740   0.033879  -0.038289
      2      -0.003969  -0.036824   0.037061
      3      -0.002742   0.024637   0.024741
      4      -0.006093   0.035350   0.039878
      5      -0.004930   0.041535   0.042436
      6      -0.003060  -0.000279  -0.000215
      7       0.060394   0.015918   0.009312
      8      -0.012891  -0.005150  -0.003947
      9      -0.001197  -0.002040  -0.002554
     10      -0.000095  -0.000496   0.000095
     11       0.000596   0.000237   0.000138
     12      -0.001170   0.002099  -0.002459
     13      -0.000269   0.000031  -0.000707
     14       0.000583  -0.000268   0.000082
     15       0.010786  -0.003361   0.001900
     16      -0.056439   0.014686  -0.008476
     17      -0.020660   0.007235  -0.005157
     18       0.000010  -0.000055   0.000055
     19       0.000032  -0.000090   0.000061
     20      -0.000010   0.000033   0.000003
     21       0.001289   0.000080  -0.000527
     22       0.000472  -0.000671   0.000040
     23      -0.004885  -0.000047  -0.001502
     24       0.033753   0.009580   0.005882
     25      -0.683650  -0.183317  -0.098364
     26       0.149154   0.041563   0.022383
     27      -0.122868   0.032789  -0.016863
     28       0.638146  -0.172999   0.092945
     29       0.236970  -0.065837   0.035400
     30      -0.027052  -0.000232  -0.002416
     31      -0.004043   0.001884  -0.000417
     32       0.012165   0.000132   0.001921
     33       0.018134   0.000093   0.005877
     34       0.000453  -0.000773   0.000259
     35       0.025180  -0.000050   0.006436
     36       0.042201  -0.270967  -0.275587
     37       0.065390  -0.416089  -0.430789
     38       0.069403  -0.462446  -0.473736
     39       0.055929   0.368466  -0.376072
     40      -0.060791  -0.399662   0.413702
     41       0.059012   0.406925  -0.415659
     42       0.000017   0.000074   0.000068
     43      -0.000027  -0.000069  -0.000046
     44      -0.000014  -0.000044  -0.000004
     45       0.000406   0.000223   0.000408
     46      -0.000255  -0.000016  -0.000163
     47      -0.000600   0.000349  -0.000135
     48       0.000324  -0.000220   0.000357
     49       0.000415  -0.000022   0.000271
     50      -0.000546  -0.000352  -0.000105


-----------
IR SPECTRUM
-----------

 Mode   freq       eps      Int      T**2         TX        TY        TZ
       cm**-1   L/(mol*cm) km/mol    a.u.
----------------------------------------------------------------------------
  6:    115.84   0.000415    2.10  0.001119  (-0.003938  0.033141  0.002275)
  7:    143.12   0.000009    0.05  0.000020  (-0.001961 -0.000502  0.003995)
  8:    199.23   0.000625    3.16  0.000979  ( 0.025812  0.004236 -0.017174)
  9:    247.33   0.003579   18.09  0.004516  ( 0.007950 -0.066568 -0.004582)
 10:    274.35   0.001544    7.80  0.001756  (-0.032779 -0.005708  0.025472)
 11:    322.45   0.000089    0.45  0.000086  ( 0.001093 -0.009173 -0.000617)
 12:    391.29   0.000275    1.39  0.000220  (-0.013642 -0.001996  0.005424)
 13:    410.67   0.000000    0.00  0.000000  ( 0.000058 -0.000475 -0.000025)
 14:    480.21   0.000027    0.14  0.000018  (-0.003604 -0.000284 -0.002156)
 15:    567.46   0.000002    0.01  0.000001  (-0.000106  0.000949  0.000055)
 16:    683.04   0.000024    0.12  0.000011  ( 0.000392 -0.003272 -0.000229)
 17:    741.96   0.000100    0.50  0.000042  (-0.004414 -0.000843  0.004671)
 18:    777.89   0.000090    0.45  0.000036  ( 0.000707 -0.005937 -0.000411)
 19:    827.63   0.000637    3.22  0.000240  ( 0.001822 -0.015348 -0.001071)
 20:    843.15   0.004339   21.93  0.001606  ( 0.037160  0.005396 -0.013998)
 21:    853.02   0.000525    2.65  0.000192  ( 0.013597  0.001744 -0.001989)
 22:    883.49   0.003329   16.82  0.001176  ( 0.021690  0.000764  0.026548)
 23:    894.77   0.000092    0.46  0.000032  (-0.000682  0.005600  0.000342)
 24:    940.77   0.000686    3.47  0.000227  (-0.010094 -0.001934  0.011039)
 25:    965.40   0.001851    9.36  0.000598  ( 0.002883 -0.024235 -0.001682)
 26:    985.60   0.000617    3.12  0.000195  (-0.000347  0.000959 -0.013944)
 27:   1001.16   0.001412    7.14  0.000440  (-0.016698 -0.002839  0.012382)
 28:   1011.06   0.000151    0.76  0.000047  (-0.000816  0.006765  0.000478)
 29:   1018.27   0.000423    2.14  0.000129  ( 0.007682  0.000350  0.008387)
 30:   1039.91   0.000003    0.02  0.000001  ( 0.000120 -0.001003 -0.000057)
 31:   1074.60   0.000021    0.11  0.000006  ( 0.001131  0.000284 -0.002170)
 32:   1099.06   0.000322    1.62  0.000091  (-0.001110  0.009467  0.000650)
 33:   1131.42   0.000991    5.01  0.000273  ( 0.001932 -0.016382 -0.001116)
 34:   1184.92   0.000193    0.97  0.000051  ( 0.005593  0.000361  0.004394)
 35:   1198.81   0.004071   20.57  0.001060  (-0.032207 -0.004001  0.002520)
 36:   1206.35   0.000001    0.01  0.000000  ( 0.000050 -0.000529 -0.000021)
 37:   1238.87   0.000030    0.15  0.000008  ( 0.000320 -0.002714 -0.000189)
 38:   1285.69   0.001298    6.56  0.000315  (-0.015127 -0.001179 -0.009204)
 39:   1301.59   0.000002    0.01  0.000001  ( 0.000084 -0.000748 -0.000044)
 40:   1399.66   0.000764    3.86  0.000170  (-0.002633  0.012582  0.002272)
 41:   1399.73   0.000659    3.33  0.000147  ( 0.007168  0.003436 -0.009147)
 42:   1510.18   0.000284    1.43  0.000059  ( 0.001014 -0.000396  0.007577)
 43:   2727.80   0.000390    1.97  0.000045  ( 0.000868 -0.006611 -0.000418)
 44:   2728.81   0.001506    7.61  0.000172  (-0.012091 -0.001142 -0.004968)
 45:   3100.16   0.006905   34.89  0.000695  (-0.007883 -0.002648  0.025018)
 46:   3143.97   0.002388   12.07  0.000237  (-0.015021 -0.001582 -0.002990)
 47:   3241.70   0.000396    2.00  0.000038  (-0.000732  0.006117  0.000441)
 48:   3242.96   0.000149    0.75  0.000014  ( 0.000536  0.000359 -0.003732)
 49:   3255.01   0.000451    2.28  0.000043  (-0.000777  0.006516  0.000443)
 50:   3268.12   0.000452    2.29  0.000043  ( 0.005969  0.000524  0.002701)

* The epsilon (eps) is given for a Dirac delta lineshape.
** The dipole moment derivative (T) already includes vibrational overlap.

The first frequency considered to be a vibration is 6
The total number of vibrations considered is 45


--------------------------
THERMOCHEMISTRY AT 298.15K
--------------------------

Temperature         ... 298.15 K
Pressure            ... 1.00 atm
Total Mass          ... 156.26 AMU

Throughout the following assumptions are being made:
  (1) The electronic state is orbitally nondegenerate
  (2) There are no thermally accessible electronically excited states
  (3) Hindered rotations indicated by low frequency modes are not
      treated as such but are treated as vibrations and this may
      cause some error
  (4) All equations used are the standard statistical mechanics
      equations for an ideal gas
  (5) All vibrations are strictly harmonic

freq.     115.84  E(vib)   ...       0.44 
freq.     143.12  E(vib)   ...       0.41 
freq.     199.23  E(vib)   ...       0.35 
freq.     247.33  E(vib)   ...       0.31 
freq.     274.35  E(vib)   ...       0.28 
freq.     322.45  E(vib)   ...       0.25 
freq.     391.29  E(vib)   ...       0.20 
freq.     410.67  E(vib)   ...       0.19 
freq.     480.21  E(vib)   ...       0.15 
freq.     567.46  E(vib)   ...       0.11 
freq.     683.04  E(vib)   ...       0.08 
freq.     741.96  E(vib)   ...       0.06 
freq.     777.89  E(vib)   ...       0.05 
freq.     827.63  E(vib)   ...       0.04 
freq.     843.15  E(vib)   ...       0.04 
freq.     853.02  E(vib)   ...       0.04 
freq.     883.49  E(vib)   ...       0.04 
freq.     894.77  E(vib)   ...       0.03 
freq.     940.77  E(vib)   ...       0.03 
freq.     965.40  E(vib)   ...       0.03 
freq.     985.60  E(vib)   ...       0.02 
freq.    1001.16  E(vib)   ...       0.02 
freq.    1011.06  E(vib)   ...       0.02 
freq.    1018.27  E(vib)   ...       0.02 
freq.    1039.91  E(vib)   ...       0.02 
freq.    1074.60  E(vib)   ...       0.02 
freq.    1099.06  E(vib)   ...       0.02 
freq.    1131.42  E(vib)   ...       0.01 
freq.    1184.92  E(vib)   ...       0.01 
freq.    1198.81  E(vib)   ...       0.01 
freq.    1206.35  E(vib)   ...       0.01 
freq.    1238.87  E(vib)   ...       0.01 
freq.    1285.69  E(vib)   ...       0.01 
freq.    1301.59  E(vib)   ...       0.01 
freq.    1399.66  E(vib)   ...       0.00 
freq.    1399.73  E(vib)   ...       0.00 
freq.    1510.18  E(vib)   ...       0.00 
freq.    2727.80  E(vib)   ...       0.00 
freq.    2728.81  E(vib)   ...       0.00 
freq.    3100.16  E(vib)   ...       0.00 
freq.    3143.97  E(vib)   ...       0.00 
freq.    3241.70  E(vib)   ...       0.00 
freq.    3242.96  E(vib)   ...       0.00 
freq.    3255.01  E(vib)   ...       0.00 
freq.    3268.12  E(vib)   ...       0.00 

------------
INNER ENERGY
------------

The inner energy is: U= E(el) + E(ZPE) + E(vib) + E(rot) + E(trans)
    E(el)   - is the total energy from the electronic structure calculation
              = E(kin-el) + E(nuc-el) + E(el-el) + E(nuc-nuc)
    E(ZPE)  - the the zero temperature vibrational energy from the frequency calculation
    E(vib)  - the the finite temperature correction to E(ZPE) due to population
              of excited vibrational states
    E(rot)  - is the rotational thermal energy
    E(trans)- is the translational thermal energy

Summary of contributions to the inner energy U:
Electronic energy                ...  -1066.47950244 Eh
Zero point energy                ...      0.12839394 Eh      80.57 kcal/mol
Thermal vibrational correction   ...      0.00535752 Eh       3.36 kcal/mol
Thermal rotational correction    ...      0.00141627 Eh       0.89 kcal/mol
Thermal translational correction ...      0.00141627 Eh       0.89 kcal/mol
-----------------------------------------------------------------------
Total thermal energy                  -1066.34291843 Eh


Summary of corrections to the electronic energy:
(perhaps to be used in another calculation)
Total thermal correction                  0.00819007 Eh       5.14 kcal/mol
Non-thermal (ZPE) correction              0.12839394 Eh      80.57 kcal/mol
-----------------------------------------------------------------------
Total correction                          0.13658401 Eh      85.71 kcal/mol


--------
ENTHALPY
--------

The enthalpy is H = U + kB*T
                kB is Boltzmann's constant
Total free energy                 ...  -1066.34291843 Eh 
Thermal Enthalpy correction       ...      0.00094421 Eh       0.59 kcal/mol
-----------------------------------------------------------------------
Total Enthalpy                    ...  -1066.34197422 Eh


Note: Only C1 symmetry has been detected, increase convergence thresholds 
      if your molecule has a higher symmetry. Symmetry factor of 1.0 is   
      used for the rotational entropy correction. 
 

Note: Rotational entropy computed according to Herzberg 
Infrared and Raman Spectra, Chapter V,1, Van Nostrand Reinhold, 1945 
Point Group:  C1, Symmetry Number:   1  
Rotational constants in cm-1:     0.049713     0.046844     0.029207 

Vibrational entropy computed according to the QRRHO of S. Grimme
Chem.Eur.J. 2012 18 9955


-------
ENTROPY
-------

The entropy contributions are T*S = T*(S(el)+S(vib)+S(rot)+S(trans))
     S(el)   - electronic entropy
     S(vib)  - vibrational entropy
     S(rot)  - rotational entropy
     S(trans)- translational entropy
The entropies will be listed as multiplied by the temperature to get
units of energy

Electronic entropy                ...      0.00000000 Eh      0.00 kcal/mol
Vibrational entropy               ...      0.00873904 Eh      5.48 kcal/mol
Rotational entropy                ...      0.01404088 Eh      8.81 kcal/mol
Translational entropy             ...      0.01950341 Eh     12.24 kcal/mol
-----------------------------------------------------------------------
Final entropy term                ...      0.04228333 Eh     26.53 kcal/mol

In case the symmetry of your molecule has not been determined correctly
or in case you have a reason to use a different symmetry number we print 
out the resulting rotational entropy values for sn=1,12 :
 --------------------------------------------------------
|  sn= 1 | S(rot)=       0.01404088 Eh      8.81 kcal/mol|
|  sn= 2 | S(rot)=       0.01338643 Eh      8.40 kcal/mol|
|  sn= 3 | S(rot)=       0.01300359 Eh      8.16 kcal/mol|
|  sn= 4 | S(rot)=       0.01273197 Eh      7.99 kcal/mol|
|  sn= 5 | S(rot)=       0.01252128 Eh      7.86 kcal/mol|
|  sn= 6 | S(rot)=       0.01234914 Eh      7.75 kcal/mol|
|  sn= 7 | S(rot)=       0.01220359 Eh      7.66 kcal/mol|
|  sn= 8 | S(rot)=       0.01207751 Eh      7.58 kcal/mol|
|  sn= 9 | S(rot)=       0.01196630 Eh      7.51 kcal/mol|
|  sn=10 | S(rot)=       0.01186682 Eh      7.45 kcal/mol|
|  sn=11 | S(rot)=       0.01177683 Eh      7.39 kcal/mol|
|  sn=12 | S(rot)=       0.01169468 Eh      7.34 kcal/mol|
 --------------------------------------------------------


-------------------
GIBBS FREE ENERGY
-------------------

The Gibbs free energy is G = H - T*S

Total enthalpy                    ...  -1066.34197422 Eh 
Total entropy correction          ...     -0.04228333 Eh    -26.53 kcal/mol
-----------------------------------------------------------------------
Final Gibbs free energy         ...  -1066.38425755 Eh

For completeness - the Gibbs free energy minus the electronic energy
G-E(el)                           ...      0.09524489 Eh     59.77 kcal/mol


Timings for individual modules:

Sum of individual times         ...    93842.569 sec (=1564.043 min)
GTO integral calculation        ...        4.214 sec (=   0.070 min)   0.0 %
SCF iterations                  ...      601.817 sec (=  10.030 min)   0.6 %
Solution of CP-SCF eqns.        ...      601.482 sec (=  10.025 min)   0.6 %
MP2 module                      ...     8368.185 sec (= 139.470 min)   8.9 %
Geometry relaxation             ...        0.557 sec (=   0.009 min)   0.0 %
Analytical frequency calculation...    84266.315 sec (=1404.439 min)  89.8 %
                             ****ORCA TERMINATED NORMALLY****
TOTAL RUN TIME: 1 days 2 hours 4 minutes 5 seconds 621 msec
