

     ************************************************************************
     *************** Dalton - An Electronic Structure Program ***************
     ************************************************************************

    This is output from DALTON release Dalton2016.1 (2016)
         ( Web site: http://daltonprogram.org )

   ----------------------------------------------------------------------------

    NOTE:
     
    Dalton is an experimental code for the evaluation of molecular
    properties using (MC)SCF, DFT, CI, and CC wave functions.
    The authors accept no responsibility for the performance of
    the code or for the correctness of the results.
     
    The code (in whole or part) is provided under a licence and
    is not to be reproduced for further distribution without
    the written permission of the authors or their representatives.
     
    See the home page "http://daltonprogram.org" for further information.
     
    If results obtained with this code are published,
    the appropriate citations would be both of:
     
       K. Aidas, C. Angeli, K. L. Bak, V. Bakken, R. Bast,
       L. Boman, O. Christiansen, R. Cimiraglia, S. Coriani,
       P. Dahle, E. K. Dalskov, U. Ekstroem,
       T. Enevoldsen, J. J. Eriksen, P. Ettenhuber, B. Fernandez,
       L. Ferrighi, H. Fliegl, L. Frediani, K. Hald, A. Halkier,
       C. Haettig, H. Heiberg, T. Helgaker, A. C. Hennum,
       H. Hettema, E. Hjertenaes, S. Hoest, I.-M. Hoeyvik,
       M. F. Iozzi, B. Jansik, H. J. Aa. Jensen, D. Jonsson,
       P. Joergensen, J. Kauczor, S. Kirpekar,
       T. Kjaergaard, W. Klopper, S. Knecht, R. Kobayashi, H. Koch,
       J. Kongsted, A. Krapp, K. Kristensen, A. Ligabue,
       O. B. Lutnaes, J. I. Melo, K. V. Mikkelsen, R. H. Myhre,
       C. Neiss, C. B. Nielsen, P. Norman, J. Olsen,
       J. M. H. Olsen, A. Osted, M. J. Packer, F. Pawlowski,
       T. B. Pedersen, P. F. Provasi, S. Reine, Z. Rinkevicius,
       T. A. Ruden, K. Ruud, V. Rybkin, P. Salek, C. C. M. Samson,
       A. Sanchez de Meras, T. Saue, S. P. A. Sauer,
       B. Schimmelpfennig, K. Sneskov, A. H. Steindal,
       K. O. Sylvester-Hvid, P. R. Taylor, A. M. Teale,
       E. I. Tellgren, D. P. Tew, A. J. Thorvaldsen, L. Thoegersen,
       O. Vahtras, M. A. Watson, D. J. D. Wilson, M. Ziolkowski
       and H. Agren,
       "The Dalton quantum chemistry program system",
       WIREs Comput. Mol. Sci. 2014, 4:269–284 (doi: 10.1002/wcms.1172)
     
    and
     
       Dalton, a Molecular Electronic Structure Program,
       Release Dalton2016.1 (2016), see http://daltonprogram.org
   ----------------------------------------------------------------------------

    Authors in alphabetical order (major contribution(s) in parenthesis):

  Kestutis Aidas,           Vilnius University,           Lithuania   (QM/MM)
  Celestino Angeli,         University of Ferrara,        Italy       (NEVPT2)
  Keld L. Bak,              UNI-C,                        Denmark     (AOSOPPA, non-adiabatic coupling, magnetic properties)
  Vebjoern Bakken,          University of Oslo,           Norway      (DALTON; geometry optimizer, symmetry detection)
  Radovan Bast,             UiT The Arctic U. of Norway,  Norway      (DALTON installation and execution frameworks)
  Pablo Baudin,             University of Valencia,       Spain       (Cholesky excitation energies)
  Linus Boman,              NTNU,                         Norway      (Cholesky decomposition and subsystems)
  Ove Christiansen,         Aarhus University,            Denmark     (CC module)
  Renzo Cimiraglia,         University of Ferrara,        Italy       (NEVPT2)
  Sonia Coriani,            University of Trieste,        Italy       (CC module, MCD in RESPONS)
  Janusz Cukras,            University of Trieste,        Italy       (MChD in RESPONS)
  Paal Dahle,               University of Oslo,           Norway      (Parallelization)
  Erik K. Dalskov,          UNI-C,                        Denmark     (SOPPA)
  Thomas Enevoldsen,        Univ. of Southern Denmark,    Denmark     (SOPPA)
  Janus J. Eriksen,         Aarhus University,            Denmark     (Polarizable embedding model, TDA)
  Rasmus Faber,             University of Copenhagen,     Denmark     (Vib.avg. NMR with SOPPA, parallel AO-SOPPA)
  Berta Fernandez,          U. of Santiago de Compostela, Spain       (doublet spin, ESR in RESPONS)
  Lara Ferrighi,            Aarhus University,            Denmark     (PCM Cubic response)
  Heike Fliegl,             University of Oslo,           Norway      (CCSD(R12))
  Luca Frediani,            UiT The Arctic U. of Norway,  Norway      (PCM)
  Bin Gao,                  UiT The Arctic U. of Norway,  Norway      (Gen1Int library)
  Christof Haettig,         Ruhr-University Bochum,       Germany     (CC module)
  Kasper Hald,              Aarhus University,            Denmark     (CC module)
  Asger Halkier,            Aarhus University,            Denmark     (CC module)
  Frederik Beyer Hansen,    University of Copenhagen,     Denmark     (Parallel AO-SOPPA)
  Erik D. Hedegaard,        Univ. of Southern Denmark,    Denmark     (Polarizable embedding model, QM/MM)
  Hanne Heiberg,            University of Oslo,           Norway      (geometry analysis, selected one-electron integrals)
  Trygve Helgaker,          University of Oslo,           Norway      (DALTON; ABACUS, ERI, DFT modules, London, and much more)
  Alf Christian Hennum,     University of Oslo,           Norway      (Parity violation)
  Hinne Hettema,            University of Auckland,       New Zealand (quadratic response in RESPONS; SIRIUS supersymmetry)
  Eirik Hjertenaes,         NTNU,                         Norway      (Cholesky decomposition)
  Maria Francesca Iozzi,    University of Oslo,           Norway      (RPA)
  Brano Jansik              Technical Univ. of Ostrava    Czech Rep.  (DFT cubic response)
  Hans Joergen Aa. Jensen,  Univ. of Southern Denmark,    Denmark     (DALTON; SIRIUS, RESPONS, ABACUS modules, London, and much more)
  Dan Jonsson,              UiT The Arctic U. of Norway,  Norway      (cubic response in RESPONS module)
  Poul Joergensen,          Aarhus University,            Denmark     (RESPONS, ABACUS, and CC modules)
  Maciej Kaminski,          University of Warsaw,         Poland      (CPPh in RESPONS)
  Joanna Kauczor,           Linkoeping University,        Sweden      (Complex polarization propagator (CPP) module)
  Sheela Kirpekar,          Univ. of Southern Denmark,    Denmark     (Mass-velocity & Darwin integrals)
  Wim Klopper,              KIT Karlsruhe,                Germany     (R12 code in CC, SIRIUS, and ABACUS modules)
  Stefan Knecht,            ETH Zurich,                   Switzerland (Parallel CI and MCSCF)
  Rika Kobayashi,           Australian National Univ.,    Australia   (DIIS in CC, London in MCSCF)
  Henrik Koch,              NTNU,                         Norway      (CC module, Cholesky decomposition)
  Jacob Kongsted,           Univ. of Southern Denmark,    Denmark     (Polarizable embedding model, QM/MM)
  Andrea Ligabue,           University of Modena,         Italy       (CTOCD, AOSOPPA)
  Nanna H. List             Univ. of Southern Denmark,    Denmark     (Polarizable embedding model)
  Ola B. Lutnaes,           University of Oslo,           Norway      (DFT Hessian)
  Juan I. Melo,             University of Buenos Aires,   Argentina   (LRESC, Relativistic Effects on NMR Shieldings)
  Kurt V. Mikkelsen,        University of Copenhagen,     Denmark     (MC-SCRF and QM/MM)
  Rolf H. Myhre,            NTNU,                         Norway      (Cholesky, subsystems and ECC2)
  Christian Neiss,          Univ. Erlangen-Nuernberg,     Germany     (CCSD(R12))
  Christian B. Nielsen,     University of Copenhagen,     Denmark     (QM/MM)
  Patrick Norman,           Linkoeping University,        Sweden      (Cubic response and complex frequency response in RESPONS)
  Jeppe Olsen,              Aarhus University,            Denmark     (SIRIUS CI/density modules)
  Jogvan Magnus H. Olsen,   Univ. of Southern Denmark,    Denmark     (Polarizable embedding model, QM/MM)
  Anders Osted,             Copenhagen University,        Denmark     (QM/MM)
  Martin J. Packer,         University of Sheffield,      UK          (SOPPA)
  Filip Pawlowski,          Kazimierz Wielki University,  Poland      (CC3)
  Morten N. Pedersen,       Univ. of Southern Denmark,    Denmark     (Polarizable embedding model)
  Thomas B. Pedersen,       University of Oslo,           Norway      (Cholesky decomposition)
  Patricio F. Provasi,      University of Northeastern,   Argentina   (Analysis of coupling constants in localized orbitals)
  Zilvinas Rinkevicius,     KTH Stockholm,                Sweden      (open-shell DFT, ESR)
  Elias Rudberg,            KTH Stockholm,                Sweden      (DFT grid and basis info)
  Torgeir A. Ruden,         University of Oslo,           Norway      (Numerical derivatives in ABACUS)
  Kenneth Ruud,             UiT The Arctic U. of Norway,  Norway      (DALTON; ABACUS magnetic properties and much more)
  Pawel Salek,              KTH Stockholm,                Sweden      (DALTON; DFT code)
  Claire C. M. Samson       University of Karlsruhe       Germany     (Boys localization, r12 integrals in ERI)
  Alfredo Sanchez de Meras, University of Valencia,       Spain       (CC module, Cholesky decomposition)
  Trond Saue,               Paul Sabatier University,     France      (direct Fock matrix construction)
  Stephan P. A. Sauer,      University of Copenhagen,     Denmark     (SOPPA(CCSD), SOPPA prop., AOSOPPA, vibrational g-factors)
  Bernd Schimmelpfennig,    Forschungszentrum Karlsruhe,  Germany     (AMFI module)
  Kristian Sneskov,         Aarhus University,            Denmark     (Polarizable embedding model, QM/MM)
  Arnfinn H. Steindal,      UiT The Arctic U. of Norway,  Norway      (parallel QM/MM, Polarizable embedding model)
  Casper Steinmann,         Univ. of Southern Denmark,    Denmark     (QFIT, Polarizable embedding model)
  K. O. Sylvester-Hvid,     University of Copenhagen,     Denmark     (MC-SCRF)
  Peter R. Taylor,          VLSCI/Univ. of Melbourne,     Australia   (Symmetry handling ABACUS, integral transformation)
  Andrew M. Teale,          University of Nottingham,     England     (DFT-AC, DFT-D)
  David P. Tew,             University of Bristol,        England     (CCSD(R12))
  Olav Vahtras,             KTH Stockholm,                Sweden      (triplet response, spin-orbit, ESR, TDDFT, open-shell DFT)
  David J. Wilson,          La Trobe University,          Australia   (DFT Hessian and DFT magnetizabilities)
  Hans Agren,               KTH Stockholm,                Sweden      (SIRIUS module, RESPONS, MC-SCRF solvation model)
 --------------------------------------------------------------------------------

     Date and time (Linux)  : Tue Dec 14 17:35:54 2021
     Host name              : node670                                 

 * Work memory size             :   512000000 =  3.815 gigabytes.

 * Directories for basis set searches:
   1) /home/magbuk/bin/UCPH-KVM/test_systems
   2) /home/sauer/source/DALTON-2016/build/basis


Compilation information
-----------------------

 Who compiled             | sauer
 Host                     | sunray
 System                   | Linux-3.16.0-4-amd64
 CMake generator          | Unix Makefiles
 Processor                | x86_64
 64-bit integers          | OFF
 MPI                      | OFF
 Fortran compiler         | /opt/intel/bin/ifort
 Fortran compiler version | ifort (IFORT) 13.0.1 20121010
 C compiler               | /opt/intel/bin/icc
 C compiler version       | icc (ICC) 13.0.1 20121010
 C++ compiler             | /opt/intel/bin/icpc
 C++ compiler version     | icpc (ICC) 13.0.1 20121010
 BLAS                     | /opt/intel/mkl/lib/intel64/libmkl_intel_lp64.so;/o
                          | pt/intel/mkl/lib/intel64/libmkl_sequential.so;/opt
                          | /intel/mkl/lib/intel64/libmkl_core.so;/usr/lib/x86
                          | _64-linux-gnu/libpthread.so;/usr/lib/x86_64-linux-
                          | gnu/libm.so
 LAPACK                   | /opt/intel/mkl/lib/intel64/libmkl_lapack95_lp64.a;
                          | /opt/intel/mkl/lib/intel64/libmkl_intel_lp64.so
 Static linking           | OFF
 Last Git revision        | a10ef0cf7cc62686ecfeaafb7364c9b014fdc003
 Configuration time       | 2016-10-13 16:30:54.213896


   Content of the .dal input file
 ----------------------------------

**DALTON INPUT                                    
.RUN WAVE FUNCTIONS                               
.DIRECT                                           
**WAVE FUNCTIONS                                  
.DFT                                              
Camb3lyp                                          
**PROPERTIES                                      
.VIBANA                                           
**END OF DALTON                                   


   Content of the .mol file
 ----------------------------

ATOMBASIS                                                                      
./Water.xyz                                                                    
Hej Magnus                                                                     
Atomtypes=2 Charge=0 NoSymmetry Angstrom                                       
  8.0000     1 Bas=cc-pVDZ Aux=cc-pVDZ-RI                                      
O     0.906440000        -0.069780000         0.021830000                      
  1.0000     2 Bas=cc-pVDZ Aux=cc-pVDZ-RI                                      
H     1.874330000        -0.048440000        -0.019410000                      
H     0.627590000         0.356710000        -0.802370000                      


       *******************************************************************
       *********** Output from DALTON general input processing ***********
       *******************************************************************

 --------------------------------------------------------------------------------
   Overall default print level:    0
   Print level for DALTON.STAT:    1

    AO-direct calculation (in sections where implemented)
    HERMIT 1- and 2-electron integral sections will be executed
    "Old" integral transformation used (limited to max 255 basis functions)
    Wave function sections will be executed (SIRIUS module)
 --------------------------------------------------------------------------------


   ****************************************************************************
   *************** Output of molecule and basis set information ***************
   ****************************************************************************


    The two title cards from your ".mol" input:
    ------------------------------------------------------------------------
 1: ./Water.xyz                                                             
 2: Hej Magnus                                                              
    ------------------------------------------------------------------------

  Coordinates are entered in Angstrom and converted to atomic units.
          - Conversion factor : 1 bohr = 0.52917721 A

  Atomic type no.    1
  --------------------
  Nuclear charge:   8.00000
  Number of symmetry independent centers:    1
  Number of basis sets to read;    2
  The basis set is "cc-pVDZ Aux=cc-pVDZ-RI" from the basis set library.
  Basis set file used for this atomic type with Z =   8 :
     "/home/sauer/source/DALTON-2016/build/basis/cc-pVDZ"

  Atomic type no.    2
  --------------------
  Nuclear charge:   1.00000
  Number of symmetry independent centers:    2
  Number of basis sets to read;    2
  The basis set is "cc-pVDZ Aux=cc-pVDZ-RI" from the basis set library.
  Basis set file used for this atomic type with Z =   1 :
     "/home/sauer/source/DALTON-2016/build/basis/cc-pVDZ"


                         SYMGRP: Point group information
                         -------------------------------

@    Point group: C1 


                                 Isotopic Masses
                                 ---------------

                           O          15.994915
                           H           1.007825
                           H           1.007825

                       Total mass:    18.010565 amu
                       Natural abundance:  99.730 %

 Center-of-mass coordinates (a.u.):    1.785785   -0.084510   -0.050263


  Atoms and basis sets
  --------------------

  Number of atom types :    2
  Total number of atoms:    3

  label    atoms   charge   prim   cont     basis
  ----------------------------------------------------------------------
  O           1    8.0000    26    14      [9s4p1d|3s2p1d]                                    
  H           2    1.0000     7     5      [4s1p|2s1p]                                        
  ----------------------------------------------------------------------
  total:      3   10.0000    40    24
  ----------------------------------------------------------------------
  Spherical harmonic basis used.

  Threshold for neglecting AO integrals:  1.00D-12


  Cartesian Coordinates (a.u.)
  ----------------------------

  Total number of coordinates:    9
  O       :     1  x   1.7129233487    2  y  -0.1318650890    3  z   0.0412527213
  H       :     4  x   3.5419703679    5  y  -0.0915383335    6  z  -0.0366795841
  H       :     7  x   1.1859732188    8  y   0.6740842060    9  z  -1.5162595509


   Interatomic separations (in Angstrom):
   --------------------------------------

            O           H           H     
            ------      ------      ------
 O     :    0.000000
 H     :    0.969003    0.000000
 H     :    0.968998    1.526936    0.000000


  Max    interatomic separation is    1.5269 Angstrom (    2.8855 Bohr)
  between atoms    3 and    2, "H     " and "H     ".

  Min HX interatomic separation is    0.9690 Angstrom (    1.8311 Bohr)


  Bond distances (Angstrom):
  --------------------------

                  atom 1     atom 2       distance
                  ------     ------       --------
  bond distance:  H          O            0.969003
  bond distance:  H          O            0.968998


  Bond angles (degrees):
  ----------------------

                  atom 1     atom 2     atom 3         angle
                  ------     ------     ------         -----
  bond angle:     H          O          H            103.978




 Principal moments of inertia (u*A**2) and principal axes
 --------------------------------------------------------

   IA       0.637405          0.816502   -0.265333    0.512760
   IB       1.174889         -0.577343   -0.375244    0.725167
   IC       1.812294          0.000000    0.888139    0.459576


 Rotational constants
 --------------------

@    The molecule is planar.

               A                   B                   C

         792869.3954         430150.4715         278861.4916 MHz
           26.447276           14.348275            9.301818 cm-1


@  Nuclear repulsion energy :    9.084261347426 Hartree


                     .---------------------------------------.
                     | Starting in Integral Section (HERMIT) |
                     `---------------------------------------'



 ***************************************************************************************
 ****************** Output from **INTEGRALS input processing (HERMIT) ******************
 ***************************************************************************************


 - Using defaults, no **INTEGRALS input found

 Default print level:        1

 * Nuclear model: Point charge

 Calculation of one-electron Hamiltonian integrals.

 Center of mass  (bohr):      1.785785349311     -0.084509652865     -0.050262560496
 Operator center (bohr):      0.000000000000      0.000000000000      0.000000000000
 Gauge origin    (bohr):      0.000000000000      0.000000000000      0.000000000000
 Dipole origin   (bohr):      0.000000000000      0.000000000000      0.000000000000


     ************************************************************************
     ************************** Output from HERINT **************************
     ************************************************************************

  Total CPU  time used in HERMIT:   0.01 seconds
  Total wall time used in HERMIT:   0.07 seconds


                        .----------------------------------.
                        | End of Integral Section (HERMIT) |
                        `----------------------------------'



                   .--------------------------------------------.
                   | Starting in Wave Function Section (SIRIUS) |
                   `--------------------------------------------'


 *** Output from Huckel module :

     Using EWMO model:          T
     Using EHT  model:          F
     Number of Huckel orbitals each symmetry:    7

 EWMO - Energy Weighted Maximum Overlap - is a Huckel type method,
        which normally is better than Extended Huckel Theory.
 Reference: Linderberg and Ohrn, Propagators in Quantum Chemistry (Wiley, 1973)

 Huckel EWMO eigenvalues for symmetry :  1
          -20.684782      -1.604187      -0.776872      -0.689806      -0.616200
           -0.236049      -0.172004

 **********************************************************************
 *SIRIUS* a direct, restricted step, second order MCSCF program       *
 **********************************************************************

 
     Date and time (Linux)  : Tue Dec 14 17:35:55 2021
     Host name              : node670                                 

 Title lines from ".mol" input file:
     ./Water.xyz                                                             
     Hej Magnus                                                              

 Print level on unit LUPRI =   2 is   0
 Print level on unit LUW4  =   2 is   5

@    Restricted, closed shell Kohn-Sham DFT calculation.
 Fock matrices are calculated directly without use of integrals on disk.

 Initial molecular orbitals are obtained according to
 ".MOSTART EWMO  " input option

     Wave function specification
     ============================
@    Wave function type        --- KS-DFT ---
@    Number of closed shell electrons          10
@    Number of electrons in active shells       0
@    Total charge of the molecule               0

@    Spin multiplicity and 2 M_S                1         0
@    Total number of symmetries                 1 (point group: C1 )
@    Reference state symmetry                   1 (irrep name : A  )
 
     This is a DFT calculation of type: Camb3lyp
 CAM-B3LYP w/ alpha=0.190 beta=0.460 mu=0.330 VwnWeight=0.190 LypWeight=0.810

     Orbital specifications
     ======================
@    Abelian symmetry species          All |    1
@                                          |  A  
                                       --- |  ---
@    Occupied SCF orbitals               5 |    5
@    Secondary orbitals                 19 |   19
@    Total number of orbitals           24 |   24
@    Number of basis functions          24 |   24

     Optimization information
     ========================
@    Number of configurations                 1
@    Number of orbital rotations             95
     ------------------------------------------
@    Total number of variables               96

     Maximum number of Fock   iterations      0
     Maximum number of DIIS   iterations     60
     Maximum number of QC-SCF iterations     60
     Threshold for SCF convergence     1.00D-05
 
     This is a DFT calculation of type: Camb3lyp
 CAM-B3LYP w/ alpha=0.190 beta=0.460 mu=0.330 VwnWeight=0.190 LypWeight=0.810


 ***********************************************
 ***** DIIS acceleration of SCF iterations *****
 ***********************************************

 C1-DIIS algorithm; max error vectors =    8

 Iter      Total energy        Error norm    Delta(E)  DIIS dim.
 -----------------------------------------------------------------------------
   1  Screening settings (-IFTHRS, JTDIIS, DIFDEN, times)   -6    1    F  4.80D-02  4.10D-02
      K-S energy, electrons, error :     -6.776409745905   9.9999997552   -2.45D-07
@  1    -76.2309678659        1.60139D+00   -7.62D+01    1
      Virial theorem: -V/T =      2.005197
@      MULPOP O      -0.55; H       0.28; H       0.28; 
   1  Level shift: doubly occupied orbital energies shifted by -2.00D-01
 -----------------------------------------------------------------------------
   2  Screening settings (-IFTHRS, JTDIIS, DIFDEN, times)   -7    2    F  4.00D-02  4.20D-02
      K-S energy, electrons, error :     -6.824844785309   9.9999997504   -2.50D-07
@  2    -76.3858643657        3.63166D-01   -1.55D-01    2
      Virial theorem: -V/T =      2.005617
@      MULPOP O      -0.22; H       0.11; H       0.11; 
   2  Level shift: doubly occupied orbital energies shifted by -5.00D-02
 -----------------------------------------------------------------------------
   3  Screening settings (-IFTHRS, JTDIIS, DIFDEN, times)   -8    3    F  4.40D-02  4.10D-02
      K-S energy, electrons, error :     -6.833199689611   9.9999997522   -2.48D-07
@  3    -76.3917204110        4.45162D-02   -5.86D-03    3
      Virial theorem: -V/T =      2.004930
@      MULPOP O      -0.26; H       0.13; H       0.13; 
   3  Level shift: doubly occupied orbital energies shifted by -1.25D-02
 -----------------------------------------------------------------------------
   4  Screening settings (-IFTHRS, JTDIIS, DIFDEN, times)   -9    4    F  4.40D-02  4.20D-02
      K-S energy, electrons, error :     -6.827710420225   9.9999997539   -2.46D-07
@  4    -76.3919066282        2.38808D-02   -1.86D-04    4
      Virial theorem: -V/T =      2.005629
@      MULPOP O      -0.27; H       0.13; H       0.13; 
   4  Level shift: doubly occupied orbital energies shifted by -1.25D-02
 -----------------------------------------------------------------------------
   5  Screening settings (-IFTHRS, JTDIIS, DIFDEN, times)   -9    5    F  4.40D-02  4.20D-02
      K-S energy, electrons, error :     -6.832432988810   9.9999997534   -2.47D-07
@  5    -76.3919315346        6.54202D-03   -2.49D-05    5
      Virial theorem: -V/T =      2.005078
@      MULPOP O      -0.27; H       0.14; H       0.14; 
 -----------------------------------------------------------------------------
   6  Screening settings (-IFTHRS, JTDIIS, DIFDEN, times)   -9    6    F  4.40D-02  4.20D-02
      K-S energy, electrons, error :     -6.831527753479   9.9999997536   -2.46D-07
@  6    -76.3919338835        4.15078D-04   -2.35D-06    6
      Virial theorem: -V/T =      2.005190
@      MULPOP O      -0.27; H       0.14; H       0.14; 
 -----------------------------------------------------------------------------
   7  Screening settings (-IFTHRS, JTDIIS, DIFDEN, times)  -10    7    F  4.00D-02  4.10D-02
      K-S energy, electrons, error :     -6.831505677464   9.9999997536   -2.46D-07
@  7    -76.3919339233        4.90132D-05   -3.98D-08    7
      Virial theorem: -V/T =      2.005194
@      MULPOP O      -0.27; H       0.14; H       0.14; 
 -----------------------------------------------------------------------------
   8  Screening settings (-IFTHRS, JTDIIS, DIFDEN, times)  -10    8    F  4.40D-02  4.20D-02
      K-S energy, electrons, error :     -6.831502231138   9.9999997536   -2.46D-07
@  8    -76.3919339238        3.82474D-06   -4.56D-10    8

@ *** DIIS converged in   8 iterations !
@     Converged SCF energy, gradient:    -76.391933923767    3.82D-06
    - total time used in SIRFCK :              0.00 seconds


 *** SCF orbital energy analysis ***

 Number of electrons :   10
 Orbital occupations :    5

 Sym       Kohn-Sham orbital energies

1 A     -19.19613954    -1.06885332    -0.57619655    -0.43298701    -0.35684488
          0.09752068     0.17277189     0.61744791     0.67288189     0.97005231
          0.98765898     1.05937447     1.26966799     1.30203773     1.49309351
          1.66204103     1.73408564     2.16541050     2.20357255     2.99243945
          3.03244145     3.19848025     3.53091610     3.80551214

    E(LUMO) :     0.09752068 au (symmetry 1)
  - E(HOMO) :    -0.35684488 au (symmetry 1)
  ------------------------------------------
    gap     :     0.45436556 au

 --- Writing SIRIFC interface file

 CPU and wall time for SCF :       2.884       3.495


                       .-----------------------------------.
                       | --- Final results from SIRIUS --- |
                       `-----------------------------------'


@    Spin multiplicity:           1
@    Spatial symmetry:            1 ( irrep  A   in C1  )
@    Total charge of molecule:    0

@    Final DFT energy:            -76.391933923767                 
@    Nuclear repulsion:             9.084261347426
@    Electronic energy:           -85.476195271194

@    Final gradient norm:           0.000003824744

 
     Date and time (Linux)  : Tue Dec 14 17:35:58 2021
     Host name              : node670                                 

File label for MO orbitals:  14Dec21   FOCKDIIS

 (Only coefficients > 0.0100 are printed.)

 Molecular orbitals for symmetry species 1  (A  )
 ------------------------------------------------

    Orbital         1        2        3        4        5        6        7
   1 O   :1s    -1.0026   0.0069   0.0000  -0.0073   0.0000  -0.0355  -0.0000
   2 O   :1s    -0.0147  -0.8652  -0.0000   0.3224   0.0000   0.2317   0.0000
   3 O   :1s     0.0128   0.1401  -0.0000   0.1892   0.0000   0.7904   0.0000
   4 O   :2px   -0.0016  -0.0944  -0.5991  -0.4598  -0.0000   0.2011  -0.4227
   5 O   :2py   -0.0011  -0.0614   0.1947  -0.2989  -0.8234   0.1307   0.1374
   6 O   :2pz    0.0021   0.1186  -0.3762   0.5775  -0.4261  -0.2525  -0.2655
   7 O   :2px    0.0012   0.0478   0.1114   0.0070  -0.0000   0.0927  -0.3160
   8 O   :2py    0.0008   0.0311  -0.0362   0.0046  -0.0557   0.0602   0.1027
   9 O   :2pz   -0.0015  -0.0600   0.0699  -0.0088  -0.0288  -0.1164  -0.1984
  12 O   :3d0   -0.0000  -0.0009   0.0153  -0.0055   0.0113   0.0028   0.0089
  13 O   :3d1+  -0.0002  -0.0003   0.0070   0.0128  -0.0052  -0.0037   0.0041
  14 O   :3d2+  -0.0003  -0.0036  -0.0136  -0.0046   0.0065   0.0057  -0.0079
  15 H   :1s     0.0006  -0.3413  -0.5545  -0.3393  -0.0000  -0.1640   0.1413
  16 H   :1s    -0.0013   0.1524   0.1642   0.1215   0.0000  -0.6985   1.2616
  17 H   :2px   -0.0012   0.0405   0.0295   0.0122  -0.0000   0.0078  -0.0089
  18 H   :2py   -0.0001  -0.0026   0.0064  -0.0120  -0.0287   0.0021   0.0008
  19 H   :2pz    0.0001   0.0051  -0.0123   0.0232  -0.0148  -0.0040  -0.0016
  20 H   :1s     0.0006  -0.3413   0.5545  -0.3393  -0.0000  -0.1640  -0.1413
  21 H   :1s    -0.0013   0.1524  -0.1642   0.1215  -0.0000  -0.6985  -1.2616
  22 H   :2px    0.0003  -0.0189  -0.0032  -0.0287  -0.0000   0.0017  -0.0047
  23 H   :2py   -0.0006   0.0167  -0.0149   0.0013  -0.0287   0.0041   0.0036
  24 H   :2pz    0.0011  -0.0322   0.0288  -0.0025  -0.0148  -0.0079  -0.0069

    Orbital         8        9       10       11       12       13       14
   1 O   :1s     0.0000   0.0701  -0.0121  -0.0000  -0.0000  -0.2127   0.0000
   2 O   :1s     0.0000   0.4975  -0.2821  -0.0000   0.0000  -1.0881   0.0000
   3 O   :1s    -0.0000  -0.6215  -0.4713  -0.0000  -0.0000   1.1483  -0.0000
   4 O   :2px    0.3582   0.3187   0.6341  -0.0000  -0.8950   0.1147   0.0000
   5 O   :2py   -0.1164   0.2072   0.4121  -1.2480   0.2908   0.0746   0.0000
   6 O   :2pz    0.2249  -0.4003  -0.7964  -0.6458  -0.5621  -0.1441   0.0000
   7 O   :2px    0.1077  -0.1756  -1.0112   0.0000   1.8478  -0.4743  -0.0000
   8 O   :2py   -0.0350  -0.1141  -0.6572   1.4684  -0.6005  -0.3083  -0.0000
   9 O   :2pz    0.0677   0.2206   1.2701   0.7598   1.1604   0.5958  -0.0000
  10 O   :3d2-  -0.0161   0.0210  -0.0090  -0.0011   0.0033   0.0511   0.1014
  11 O   :3d1-  -0.0404   0.0525  -0.0024   0.0010   0.0084  -0.0506   0.0466
  12 O   :3d0    0.0676  -0.0043  -0.0034   0.0012  -0.0141   0.0358   0.0571
  13 O   :3d1+   0.0311  -0.0406   0.0173  -0.0006  -0.0065  -0.0987   0.0525
  14 O   :3d2+  -0.0599  -0.0669   0.0092   0.0007   0.0125   0.0096   0.0330
  15 H   :1s    -1.6005  -1.3737   0.9118   0.0000  -0.6369   0.5497  -0.0000
  16 H   :1s     1.6336   1.2886  -0.3733  -0.0000  -0.4962  -0.4861   0.0000
  17 H   :2px   -0.1284  -0.2378  -0.1656   0.0000   0.2923   0.0219   0.0000
  18 H   :2py   -0.0344   0.0461  -0.0789   0.0302  -0.0192   0.2883   0.6063
  19 H   :2pz    0.0664  -0.0891   0.1525   0.0156   0.0371  -0.5571   0.3137
  20 H   :1s     1.6004  -1.3738   0.9118   0.0000   0.6369   0.5497  -0.0000
  21 H   :1s    -1.6335   1.2887  -0.3733  -0.0000   0.4962  -0.4861   0.0000
  22 H   :2px    0.0277   0.1739  -0.1066   0.0000   0.1368   0.5841  -0.0000
  23 H   :2py    0.0671  -0.0877  -0.0981   0.0302  -0.1203   0.1056  -0.6063
  24 H   :2pz   -0.1297   0.1695   0.1895   0.0156   0.2324  -0.2041  -0.3137

    Orbital        15
   5 O   :2py    0.0216
   6 O   :2pz    0.0112
   8 O   :2py   -0.5931
   9 O   :2pz   -0.3069
  10 O   :3d2-   0.0872
  11 O   :3d1-  -0.0802
  12 O   :3d0   -0.0981
  13 O   :3d1+   0.0451
  14 O   :3d2+  -0.0567
  18 H   :2py    0.6751
  19 H   :2pz    0.3493
  23 H   :2py    0.6751
  24 H   :2pz    0.3494

  Total CPU  time used in SIRIUS :   2.89 seconds
  Total wall time used in SIRIUS :   3.90 seconds

 
     Date and time (Linux)  : Tue Dec 14 17:35:58 2021
     Host name              : node670                                 


                     .---------------------------------------.
                     | End of Wave Function Section (SIRIUS) |
                     `---------------------------------------'

  Total CPU  time used in DALTON:   2.91 seconds
  Total wall time used in DALTON:   4.02 seconds

 
     Date and time (Linux)  : Tue Dec 14 17:35:58 2021
     Host name              : node670                                 
