

     ************************************************************************
     *************** Dalton - An Electronic Structure Program ***************
     ************************************************************************

    This is output from DALTON release Dalton2016.1 (2016)
         ( Web site: http://daltonprogram.org )

   ----------------------------------------------------------------------------

    NOTE:
     
    Dalton is an experimental code for the evaluation of molecular
    properties using (MC)SCF, DFT, CI, and CC wave functions.
    The authors accept no responsibility for the performance of
    the code or for the correctness of the results.
     
    The code (in whole or part) is provided under a licence and
    is not to be reproduced for further distribution without
    the written permission of the authors or their representatives.
     
    See the home page "http://daltonprogram.org" for further information.
     
    If results obtained with this code are published,
    the appropriate citations would be both of:
     
       K. Aidas, C. Angeli, K. L. Bak, V. Bakken, R. Bast,
       L. Boman, O. Christiansen, R. Cimiraglia, S. Coriani,
       P. Dahle, E. K. Dalskov, U. Ekstroem,
       T. Enevoldsen, J. J. Eriksen, P. Ettenhuber, B. Fernandez,
       L. Ferrighi, H. Fliegl, L. Frediani, K. Hald, A. Halkier,
       C. Haettig, H. Heiberg, T. Helgaker, A. C. Hennum,
       H. Hettema, E. Hjertenaes, S. Hoest, I.-M. Hoeyvik,
       M. F. Iozzi, B. Jansik, H. J. Aa. Jensen, D. Jonsson,
       P. Joergensen, J. Kauczor, S. Kirpekar,
       T. Kjaergaard, W. Klopper, S. Knecht, R. Kobayashi, H. Koch,
       J. Kongsted, A. Krapp, K. Kristensen, A. Ligabue,
       O. B. Lutnaes, J. I. Melo, K. V. Mikkelsen, R. H. Myhre,
       C. Neiss, C. B. Nielsen, P. Norman, J. Olsen,
       J. M. H. Olsen, A. Osted, M. J. Packer, F. Pawlowski,
       T. B. Pedersen, P. F. Provasi, S. Reine, Z. Rinkevicius,
       T. A. Ruden, K. Ruud, V. Rybkin, P. Salek, C. C. M. Samson,
       A. Sanchez de Meras, T. Saue, S. P. A. Sauer,
       B. Schimmelpfennig, K. Sneskov, A. H. Steindal,
       K. O. Sylvester-Hvid, P. R. Taylor, A. M. Teale,
       E. I. Tellgren, D. P. Tew, A. J. Thorvaldsen, L. Thoegersen,
       O. Vahtras, M. A. Watson, D. J. D. Wilson, M. Ziolkowski
       and H. Agren,
       "The Dalton quantum chemistry program system",
       WIREs Comput. Mol. Sci. 2014, 4:269–284 (doi: 10.1002/wcms.1172)
     
    and
     
       Dalton, a Molecular Electronic Structure Program,
       Release Dalton2016.1 (2016), see http://daltonprogram.org
   ----------------------------------------------------------------------------

    Authors in alphabetical order (major contribution(s) in parenthesis):

  Kestutis Aidas,           Vilnius University,           Lithuania   (QM/MM)
  Celestino Angeli,         University of Ferrara,        Italy       (NEVPT2)
  Keld L. Bak,              UNI-C,                        Denmark     (AOSOPPA, non-adiabatic coupling, magnetic properties)
  Vebjoern Bakken,          University of Oslo,           Norway      (DALTON; geometry optimizer, symmetry detection)
  Radovan Bast,             UiT The Arctic U. of Norway,  Norway      (DALTON installation and execution frameworks)
  Pablo Baudin,             University of Valencia,       Spain       (Cholesky excitation energies)
  Linus Boman,              NTNU,                         Norway      (Cholesky decomposition and subsystems)
  Ove Christiansen,         Aarhus University,            Denmark     (CC module)
  Renzo Cimiraglia,         University of Ferrara,        Italy       (NEVPT2)
  Sonia Coriani,            University of Trieste,        Italy       (CC module, MCD in RESPONS)
  Janusz Cukras,            University of Trieste,        Italy       (MChD in RESPONS)
  Paal Dahle,               University of Oslo,           Norway      (Parallelization)
  Erik K. Dalskov,          UNI-C,                        Denmark     (SOPPA)
  Thomas Enevoldsen,        Univ. of Southern Denmark,    Denmark     (SOPPA)
  Janus J. Eriksen,         Aarhus University,            Denmark     (Polarizable embedding model, TDA)
  Rasmus Faber,             University of Copenhagen,     Denmark     (Vib.avg. NMR with SOPPA, parallel AO-SOPPA)
  Berta Fernandez,          U. of Santiago de Compostela, Spain       (doublet spin, ESR in RESPONS)
  Lara Ferrighi,            Aarhus University,            Denmark     (PCM Cubic response)
  Heike Fliegl,             University of Oslo,           Norway      (CCSD(R12))
  Luca Frediani,            UiT The Arctic U. of Norway,  Norway      (PCM)
  Bin Gao,                  UiT The Arctic U. of Norway,  Norway      (Gen1Int library)
  Christof Haettig,         Ruhr-University Bochum,       Germany     (CC module)
  Kasper Hald,              Aarhus University,            Denmark     (CC module)
  Asger Halkier,            Aarhus University,            Denmark     (CC module)
  Frederik Beyer Hansen,    University of Copenhagen,     Denmark     (Parallel AO-SOPPA)
  Erik D. Hedegaard,        Univ. of Southern Denmark,    Denmark     (Polarizable embedding model, QM/MM)
  Hanne Heiberg,            University of Oslo,           Norway      (geometry analysis, selected one-electron integrals)
  Trygve Helgaker,          University of Oslo,           Norway      (DALTON; ABACUS, ERI, DFT modules, London, and much more)
  Alf Christian Hennum,     University of Oslo,           Norway      (Parity violation)
  Hinne Hettema,            University of Auckland,       New Zealand (quadratic response in RESPONS; SIRIUS supersymmetry)
  Eirik Hjertenaes,         NTNU,                         Norway      (Cholesky decomposition)
  Maria Francesca Iozzi,    University of Oslo,           Norway      (RPA)
  Brano Jansik              Technical Univ. of Ostrava    Czech Rep.  (DFT cubic response)
  Hans Joergen Aa. Jensen,  Univ. of Southern Denmark,    Denmark     (DALTON; SIRIUS, RESPONS, ABACUS modules, London, and much more)
  Dan Jonsson,              UiT The Arctic U. of Norway,  Norway      (cubic response in RESPONS module)
  Poul Joergensen,          Aarhus University,            Denmark     (RESPONS, ABACUS, and CC modules)
  Maciej Kaminski,          University of Warsaw,         Poland      (CPPh in RESPONS)
  Joanna Kauczor,           Linkoeping University,        Sweden      (Complex polarization propagator (CPP) module)
  Sheela Kirpekar,          Univ. of Southern Denmark,    Denmark     (Mass-velocity & Darwin integrals)
  Wim Klopper,              KIT Karlsruhe,                Germany     (R12 code in CC, SIRIUS, and ABACUS modules)
  Stefan Knecht,            ETH Zurich,                   Switzerland (Parallel CI and MCSCF)
  Rika Kobayashi,           Australian National Univ.,    Australia   (DIIS in CC, London in MCSCF)
  Henrik Koch,              NTNU,                         Norway      (CC module, Cholesky decomposition)
  Jacob Kongsted,           Univ. of Southern Denmark,    Denmark     (Polarizable embedding model, QM/MM)
  Andrea Ligabue,           University of Modena,         Italy       (CTOCD, AOSOPPA)
  Nanna H. List             Univ. of Southern Denmark,    Denmark     (Polarizable embedding model)
  Ola B. Lutnaes,           University of Oslo,           Norway      (DFT Hessian)
  Juan I. Melo,             University of Buenos Aires,   Argentina   (LRESC, Relativistic Effects on NMR Shieldings)
  Kurt V. Mikkelsen,        University of Copenhagen,     Denmark     (MC-SCRF and QM/MM)
  Rolf H. Myhre,            NTNU,                         Norway      (Cholesky, subsystems and ECC2)
  Christian Neiss,          Univ. Erlangen-Nuernberg,     Germany     (CCSD(R12))
  Christian B. Nielsen,     University of Copenhagen,     Denmark     (QM/MM)
  Patrick Norman,           Linkoeping University,        Sweden      (Cubic response and complex frequency response in RESPONS)
  Jeppe Olsen,              Aarhus University,            Denmark     (SIRIUS CI/density modules)
  Jogvan Magnus H. Olsen,   Univ. of Southern Denmark,    Denmark     (Polarizable embedding model, QM/MM)
  Anders Osted,             Copenhagen University,        Denmark     (QM/MM)
  Martin J. Packer,         University of Sheffield,      UK          (SOPPA)
  Filip Pawlowski,          Kazimierz Wielki University,  Poland      (CC3)
  Morten N. Pedersen,       Univ. of Southern Denmark,    Denmark     (Polarizable embedding model)
  Thomas B. Pedersen,       University of Oslo,           Norway      (Cholesky decomposition)
  Patricio F. Provasi,      University of Northeastern,   Argentina   (Analysis of coupling constants in localized orbitals)
  Zilvinas Rinkevicius,     KTH Stockholm,                Sweden      (open-shell DFT, ESR)
  Elias Rudberg,            KTH Stockholm,                Sweden      (DFT grid and basis info)
  Torgeir A. Ruden,         University of Oslo,           Norway      (Numerical derivatives in ABACUS)
  Kenneth Ruud,             UiT The Arctic U. of Norway,  Norway      (DALTON; ABACUS magnetic properties and much more)
  Pawel Salek,              KTH Stockholm,                Sweden      (DALTON; DFT code)
  Claire C. M. Samson       University of Karlsruhe       Germany     (Boys localization, r12 integrals in ERI)
  Alfredo Sanchez de Meras, University of Valencia,       Spain       (CC module, Cholesky decomposition)
  Trond Saue,               Paul Sabatier University,     France      (direct Fock matrix construction)
  Stephan P. A. Sauer,      University of Copenhagen,     Denmark     (SOPPA(CCSD), SOPPA prop., AOSOPPA, vibrational g-factors)
  Bernd Schimmelpfennig,    Forschungszentrum Karlsruhe,  Germany     (AMFI module)
  Kristian Sneskov,         Aarhus University,            Denmark     (Polarizable embedding model, QM/MM)
  Arnfinn H. Steindal,      UiT The Arctic U. of Norway,  Norway      (parallel QM/MM, Polarizable embedding model)
  Casper Steinmann,         Univ. of Southern Denmark,    Denmark     (QFIT, Polarizable embedding model)
  K. O. Sylvester-Hvid,     University of Copenhagen,     Denmark     (MC-SCRF)
  Peter R. Taylor,          VLSCI/Univ. of Melbourne,     Australia   (Symmetry handling ABACUS, integral transformation)
  Andrew M. Teale,          University of Nottingham,     England     (DFT-AC, DFT-D)
  David P. Tew,             University of Bristol,        England     (CCSD(R12))
  Olav Vahtras,             KTH Stockholm,                Sweden      (triplet response, spin-orbit, ESR, TDDFT, open-shell DFT)
  David J. Wilson,          La Trobe University,          Australia   (DFT Hessian and DFT magnetizabilities)
  Hans Agren,               KTH Stockholm,                Sweden      (SIRIUS module, RESPONS, MC-SCRF solvation model)
 --------------------------------------------------------------------------------

     Date and time (Linux)  : Tue Dec 14 17:35:54 2021
     Host name              : node664                                 

 * Work memory size             :   512000000 =  3.815 gigabytes.

 * Directories for basis set searches:
   1) /home/magbuk/bin/UCPH-KVM/test_systems
   2) /home/sauer/source/DALTON-2016/build/basis


Compilation information
-----------------------

 Who compiled             | sauer
 Host                     | sunray
 System                   | Linux-3.16.0-4-amd64
 CMake generator          | Unix Makefiles
 Processor                | x86_64
 64-bit integers          | OFF
 MPI                      | OFF
 Fortran compiler         | /opt/intel/bin/ifort
 Fortran compiler version | ifort (IFORT) 13.0.1 20121010
 C compiler               | /opt/intel/bin/icc
 C compiler version       | icc (ICC) 13.0.1 20121010
 C++ compiler             | /opt/intel/bin/icpc
 C++ compiler version     | icpc (ICC) 13.0.1 20121010
 BLAS                     | /opt/intel/mkl/lib/intel64/libmkl_intel_lp64.so;/o
                          | pt/intel/mkl/lib/intel64/libmkl_sequential.so;/opt
                          | /intel/mkl/lib/intel64/libmkl_core.so;/usr/lib/x86
                          | _64-linux-gnu/libpthread.so;/usr/lib/x86_64-linux-
                          | gnu/libm.so
 LAPACK                   | /opt/intel/mkl/lib/intel64/libmkl_lapack95_lp64.a;
                          | /opt/intel/mkl/lib/intel64/libmkl_intel_lp64.so
 Static linking           | OFF
 Last Git revision        | a10ef0cf7cc62686ecfeaafb7364c9b014fdc003
 Configuration time       | 2016-10-13 16:30:54.213896


   Content of the .dal input file
 ----------------------------------

**DALTON INPUT                                    
.RUN WAVE FUNCTIONS                               
.DIRECT                                           
**WAVE FUNCTIONS                                  
.DFT                                              
Camb3lyp                                          
**PROPERTIES                                      
.VIBANA                                           
**END OF DALTON                                   


   Content of the .mol file
 ----------------------------

ATOMBASIS                                                                      
./Ethanol.xyz                                                                  
Hej Magnus                                                                     
Atomtypes=3 Charge=0 NoSymmetry Angstrom                                       
  6.0000     2 Bas=cc-pVDZ Aux=cc-pVDZ-RI                                      
C     1.011100000         0.077080000        -0.059530000                      
C     2.525690000         0.079850000        -0.066400000                      
  8.0000     1 Bas=cc-pVDZ Aux=cc-pVDZ-RI                                      
O     3.005810000         1.243650000        -0.723650000                      
  1.0000     6 Bas=cc-pVDZ Aux=cc-pVDZ-RI                                      
H     0.625160000        -0.805710000         0.457800000                      
H     0.619370000         0.085560000        -1.081990000                      
H     0.626450000         0.974410000         0.436200000                      
H     2.917510000        -0.801850000        -0.582510000                      
H     2.913160000         0.081420000         0.956540000                      
H     2.664530000         1.228020000        -1.634070000                      


       *******************************************************************
       *********** Output from DALTON general input processing ***********
       *******************************************************************

 --------------------------------------------------------------------------------
   Overall default print level:    0
   Print level for DALTON.STAT:    1

    AO-direct calculation (in sections where implemented)
    HERMIT 1- and 2-electron integral sections will be executed
    "Old" integral transformation used (limited to max 255 basis functions)
    Wave function sections will be executed (SIRIUS module)
 --------------------------------------------------------------------------------


   ****************************************************************************
   *************** Output of molecule and basis set information ***************
   ****************************************************************************


    The two title cards from your ".mol" input:
    ------------------------------------------------------------------------
 1: ./Ethanol.xyz                                                           
 2: Hej Magnus                                                              
    ------------------------------------------------------------------------

  Coordinates are entered in Angstrom and converted to atomic units.
          - Conversion factor : 1 bohr = 0.52917721 A

  Atomic type no.    1
  --------------------
  Nuclear charge:   6.00000
  Number of symmetry independent centers:    2
  Number of basis sets to read;    2
  The basis set is "cc-pVDZ Aux=cc-pVDZ-RI" from the basis set library.
  Basis set file used for this atomic type with Z =   6 :
     "/home/sauer/source/DALTON-2016/build/basis/cc-pVDZ"

  Atomic type no.    2
  --------------------
  Nuclear charge:   8.00000
  Number of symmetry independent centers:    1
  Number of basis sets to read;    2
  The basis set is "cc-pVDZ Aux=cc-pVDZ-RI" from the basis set library.
  Basis set file used for this atomic type with Z =   8 :
     "/home/sauer/source/DALTON-2016/build/basis/cc-pVDZ"

  Atomic type no.    3
  --------------------
  Nuclear charge:   1.00000
  Number of symmetry independent centers:    6
  Number of basis sets to read;    2
  The basis set is "cc-pVDZ Aux=cc-pVDZ-RI" from the basis set library.
  Basis set file used for this atomic type with Z =   1 :
     "/home/sauer/source/DALTON-2016/build/basis/cc-pVDZ"


                         SYMGRP: Point group information
                         -------------------------------

@    Point group: C1 


                                 Isotopic Masses
                                 ---------------

                           C          12.000000
                           C          12.000000
                           O          15.994915
                           H           1.007825
                           H           1.007825
                           H           1.007825
                           H           1.007825
                           H           1.007825
                           H           1.007825

                       Total mass:    46.041865 amu
                       Natural abundance:  97.490 %

 Center-of-mass coordinates (a.u.):    4.144032    0.925249   -0.596990


  Atoms and basis sets
  --------------------

  Number of atom types :    3
  Total number of atoms:    9

  label    atoms   charge   prim   cont     basis
  ----------------------------------------------------------------------
  C           2    6.0000    26    14      [9s4p1d|3s2p1d]                                    
  O           1    8.0000    26    14      [9s4p1d|3s2p1d]                                    
  H           6    1.0000     7     5      [4s1p|2s1p]                                        
  ----------------------------------------------------------------------
  total:      9   26.0000   120    72
  ----------------------------------------------------------------------
  Spherical harmonic basis used.

  Threshold for neglecting AO integrals:  1.00D-12


  Cartesian Coordinates (a.u.)
  ----------------------------

  Total number of coordinates:   27
  C       :     1  x   1.9107020850    2  y   0.1456600897    3  z  -0.1124953962
  C       :     4  x   4.7728623766    5  y   0.1508946311    6  z  -0.1254778147
  O       :     7  x   5.6801576838    8  y   2.3501578953    9  z  -1.3675003104
  H       :    10  x   1.1813811843   11  y  -1.5225712362   12  z   0.8651166200
  H       :    13  x   1.1704396700   14  y   0.1616849673   15  z  -2.0446647700
  H       :    16  x   1.1838189310   17  y   1.8413680335   18  z   0.8242985357
  H       :    19  x   5.5132948669   20  y  -1.5152768933   21  z  -1.1007843651
  H       :    22  x   5.5050745583   23  y   0.1538615011   24  z   1.8075986276
  H       :    25  x   5.0352319518   26  y   2.3206214760   27  z  -3.0879447691


   Interatomic separations (in Angstrom):
   --------------------------------------

            C           C           O           H           H           H     
            ------      ------      ------      ------      ------      ------
 C     :    0.000000
 C     :    1.514608    0.000000
 O     :    2.404331    1.420184    0.000000
 H     :    1.093571    2.161253    3.356068    0.000000
 H     :    1.094965    2.159980    2.676691    1.779143    0.000000
 H     :    1.094945    2.158693    2.660657    1.780252    1.759263    0.000000
 H     :    2.163429    1.094206    2.052264    2.517365    2.513648    3.072755
 H     :    2.156444    1.093865    2.045092    2.504134    3.068728    2.509428
 H     :    2.556887    1.948117    0.972410    3.559636    2.406800    2.916180

            H           H           H     
            ------      ------      ------
 H     :    0.000000
 H     :    1.774503    0.000000
 H     :    2.300033    2.843900    0.000000


  Max    interatomic separation is    3.5596 Angstrom (    6.7267 Bohr)
  between atoms    9 and    4, "H     " and "H     ".

  Min HX interatomic separation is    0.9724 Angstrom (    1.8376 Bohr)

  Min YX interatomic separation is    1.4202 Angstrom (    2.6838 Bohr)


  Bond distances (Angstrom):
  --------------------------

                  atom 1     atom 2       distance
                  ------     ------       --------
  bond distance:  C          C            1.514608
  bond distance:  O          C            1.420184
  bond distance:  H          C            1.093571
  bond distance:  H          C            1.094965
  bond distance:  H          C            1.094945
  bond distance:  H          C            1.094206
  bond distance:  H          C            1.093865
  bond distance:  H          O            0.972410


  Bond angles (degrees):
  ----------------------

                  atom 1     atom 2     atom 3         angle
                  ------     ------     ------         -----
  bond angle:     C          C          H            110.888
  bond angle:     C          C          H            110.702
  bond angle:     C          C          H            110.600
  bond angle:     H          C          H            108.768
  bond angle:     H          C          H            108.869
  bond angle:     H          C          H            106.902
  bond angle:     C          C          O            109.978
  bond angle:     C          C          H            111.023
  bond angle:     C          C          H            110.486
  bond angle:     O          C          H            108.722
  bond angle:     O          C          H            108.171
  bond angle:     H          C          H            108.385
  bond angle:     C          O          H            107.546




 Principal moments of inertia (u*A**2) and principal axes
 --------------------------------------------------------

   IA      15.174894          0.828122    0.477066   -0.294314
   IB      52.969915         -0.559862    0.677977   -0.476342
   IC      60.728626         -0.027709    0.559245    0.828539


 Rotational constants
 --------------------

               A                   B                   C

          33303.6263           9540.8687           8321.9239 MHz
            1.110889            0.318249            0.277590 cm-1


@  Nuclear repulsion energy :   82.024065349357 Hartree


                     .---------------------------------------.
                     | Starting in Integral Section (HERMIT) |
                     `---------------------------------------'



 ***************************************************************************************
 ****************** Output from **INTEGRALS input processing (HERMIT) ******************
 ***************************************************************************************


 - Using defaults, no **INTEGRALS input found

 Default print level:        1

 * Nuclear model: Point charge

 Calculation of one-electron Hamiltonian integrals.

 Center of mass  (bohr):      4.144031521145      0.925248919173     -0.596989762531
 Operator center (bohr):      0.000000000000      0.000000000000      0.000000000000
 Gauge origin    (bohr):      0.000000000000      0.000000000000      0.000000000000
 Dipole origin   (bohr):      0.000000000000      0.000000000000      0.000000000000


     ************************************************************************
     ************************** Output from HERINT **************************
     ************************************************************************

  Total CPU  time used in HERMIT:   0.08 seconds
  Total wall time used in HERMIT:   0.08 seconds


                        .----------------------------------.
                        | End of Integral Section (HERMIT) |
                        `----------------------------------'



                   .--------------------------------------------.
                   | Starting in Wave Function Section (SIRIUS) |
                   `--------------------------------------------'


 *** Output from Huckel module :

     Using EWMO model:          T
     Using EHT  model:          F
     Number of Huckel orbitals each symmetry:   21

 EWMO - Energy Weighted Maximum Overlap - is a Huckel type method,
        which normally is better than Extended Huckel Theory.
 Reference: Linderberg and Ohrn, Propagators in Quantum Chemistry (Wiley, 1973)

 Huckel EWMO eigenvalues for symmetry :  1
          -20.684732     -11.354120     -11.348050      -1.855220      -1.404282
           -1.089292      -0.891713      -0.742681      -0.674745      -0.612968
           -0.565324      -0.493247      -0.468582      -0.233923      -0.176539
           -0.133896      -0.127474      -0.126197      -0.117270      -0.112503
           -0.109542

 **********************************************************************
 *SIRIUS* a direct, restricted step, second order MCSCF program       *
 **********************************************************************

 
     Date and time (Linux)  : Tue Dec 14 17:35:54 2021
     Host name              : node664                                 

 Title lines from ".mol" input file:
     ./Ethanol.xyz                                                           
     Hej Magnus                                                              

 Print level on unit LUPRI =   2 is   0
 Print level on unit LUW4  =   2 is   5

@    Restricted, closed shell Kohn-Sham DFT calculation.
 Fock matrices are calculated directly without use of integrals on disk.

 Initial molecular orbitals are obtained according to
 ".MOSTART EWMO  " input option

     Wave function specification
     ============================
@    Wave function type        --- KS-DFT ---
@    Number of closed shell electrons          26
@    Number of electrons in active shells       0
@    Total charge of the molecule               0

@    Spin multiplicity and 2 M_S                1         0
@    Total number of symmetries                 1 (point group: C1 )
@    Reference state symmetry                   1 (irrep name : A  )
 
     This is a DFT calculation of type: Camb3lyp
 CAM-B3LYP w/ alpha=0.190 beta=0.460 mu=0.330 VwnWeight=0.190 LypWeight=0.810

     Orbital specifications
     ======================
@    Abelian symmetry species          All |    1
@                                          |  A  
                                       --- |  ---
@    Occupied SCF orbitals              13 |   13
@    Secondary orbitals                 59 |   59
@    Total number of orbitals           72 |   72
@    Number of basis functions          72 |   72

     Optimization information
     ========================
@    Number of configurations                 1
@    Number of orbital rotations            767
     ------------------------------------------
@    Total number of variables              768

     Maximum number of Fock   iterations      0
     Maximum number of DIIS   iterations     60
     Maximum number of QC-SCF iterations     60
     Threshold for SCF convergence     1.00D-05
 
     This is a DFT calculation of type: Camb3lyp
 CAM-B3LYP w/ alpha=0.190 beta=0.460 mu=0.330 VwnWeight=0.190 LypWeight=0.810


 ***********************************************
 ***** DIIS acceleration of SCF iterations *****
 ***********************************************

 C1-DIIS algorithm; max error vectors =    8

 Iter      Total energy        Error norm    Delta(E)  DIIS dim.
 -----------------------------------------------------------------------------
   1  Screening settings (-IFTHRS, JTDIIS, DIFDEN, times)   -7    1    F  2.90D+00  2.90D+00
      K-S energy, electrons, error :    -15.320501712046  25.9999950891   -4.91D-06
@  1    -154.375667756        2.95438D+00   -1.54D+02    1
      Virial theorem: -V/T =      2.013441
@      MULPOP C       0.42; C       0.86; O      -0.68; H      -0.12; H      -0.14; H      -0.15; H      -0.21; H      -0.21; H       0.24; 
   1  Level shift: doubly occupied orbital energies shifted by -2.00D-01
 -----------------------------------------------------------------------------
   2  Screening settings (-IFTHRS, JTDIIS, DIFDEN, times)   -8    2    F  2.94D+00  2.94D+00
      K-S energy, electrons, error :    -15.702145967503  25.9999943074   -5.69D-06
@  2    -154.788608561        1.81853D+00   -4.13D-01    2
      Virial theorem: -V/T =      2.003591
@      MULPOP C      -0.34; C      -0.38; O       0.08; H       0.11; H       0.11; H       0.13; H       0.11; H       0.12; H       0.06; 
   2  Level shift: doubly occupied orbital energies shifted by -2.00D-01
 -----------------------------------------------------------------------------
   3  Screening settings (-IFTHRS, JTDIIS, DIFDEN, times)   -8    3    F  2.94D+00  2.94D+00
      K-S energy, electrons, error :    -15.706297873597  25.9999946189   -5.38D-06
@  3    -154.958047413        2.88657D-01   -1.69D-01    3
      Virial theorem: -V/T =      2.003710
@      MULPOP C      -0.10; C       0.08; O      -0.28; H       0.03; H       0.03; H       0.05; H       0.02; H       0.04; H       0.14; 
   3  Level shift: doubly occupied orbital energies shifted by -5.00D-02
 -----------------------------------------------------------------------------
   4  Screening settings (-IFTHRS, JTDIIS, DIFDEN, times)   -9    4    F  2.95D+00  2.95D+00
      K-S energy, electrons, error :    -15.619689315057  25.9999945966   -5.40D-06
@  4    -154.961598426        1.78092D-01   -3.55D-03    4
      Virial theorem: -V/T =      2.008540
@      MULPOP C      -0.03; C       0.12; O      -0.25; H       0.00; H       0.00; H       0.02; H      -0.01; H       0.02; H       0.12; 
   4  Level shift: doubly occupied orbital energies shifted by -5.00D-02
 -----------------------------------------------------------------------------
   5  Screening settings (-IFTHRS, JTDIIS, DIFDEN, times)   -9    5    F  2.95D+00  2.95D+00
      K-S energy, electrons, error :    -15.656832888400  25.9999946156   -5.38D-06
@  5    -154.963156344        1.97860D-02   -1.56D-03    5
      Virial theorem: -V/T =      2.006423
@      MULPOP C      -0.06; C       0.11; O      -0.28; H       0.02; H       0.01; H       0.03; H       0.00; H       0.03; H       0.14; 
   5  Level shift: doubly occupied orbital energies shifted by -1.25D-02
 -----------------------------------------------------------------------------
   6  Screening settings (-IFTHRS, JTDIIS, DIFDEN, times)  -10    6    F  2.96D+00  2.96D+00
      K-S energy, electrons, error :    -15.655398406261  25.9999946194   -5.38D-06
@  6    -154.963186941        4.39022D-03   -3.06D-05    6
      Virial theorem: -V/T =      2.006511
@      MULPOP C      -0.06; C       0.11; O      -0.28; H       0.02; H       0.01; H       0.03; H       0.00; H       0.03; H       0.14; 
 -----------------------------------------------------------------------------
   7  Screening settings (-IFTHRS, JTDIIS, DIFDEN, times)  -11    7    F  2.96D+00  2.96D+00
      K-S energy, electrons, error :    -15.655687395022  25.9999946200   -5.38D-06
@  7    -154.963188619        1.31403D-03   -1.68D-06    7
      Virial theorem: -V/T =      2.006495
@      MULPOP C      -0.05; C       0.11; O      -0.28; H       0.02; H       0.01; H       0.03; H       0.00; H       0.03; H       0.14; 
 -----------------------------------------------------------------------------
   8  Screening settings (-IFTHRS, JTDIIS, DIFDEN, times)  -11    8    F  2.96D+00  2.96D+00
      K-S energy, electrons, error :    -15.655708629361  25.9999946199   -5.38D-06
@  8    -154.963188748        4.32955D-04   -1.30D-07    8
      Virial theorem: -V/T =      2.006494
@      MULPOP C      -0.06; C       0.11; O      -0.28; H       0.02; H       0.01; H       0.03; H       0.00; H       0.03; H       0.14; 
 -----------------------------------------------------------------------------
   9  Screening settings (-IFTHRS, JTDIIS, DIFDEN, times)  -11    9    F  2.96D+00  2.96D+00
      K-S energy, electrons, error :    -15.655703292013  25.9999946201   -5.38D-06
@  9    -154.963188765        8.35082D-05   -1.69D-08    8
      Virial theorem: -V/T =      2.006494
@      MULPOP C      -0.06; C       0.11; O      -0.28; H       0.02; H       0.01; H       0.03; H       0.00; H       0.03; H       0.14; 
 -----------------------------------------------------------------------------
  10  Screening settings (-IFTHRS, JTDIIS, DIFDEN, times)  -11   10    F  2.96D+00  2.96D+00
      K-S energy, electrons, error :    -15.655701524978  25.9999946201   -5.38D-06
@ 10    -154.963188766        1.75528D-05   -1.03D-09    8
      Virial theorem: -V/T =      2.006494
@      MULPOP C      -0.06; C       0.11; O      -0.28; H       0.02; H       0.01; H       0.03; H       0.00; H       0.03; H       0.14; 
 -----------------------------------------------------------------------------
  11  Screening settings (-IFTHRS, JTDIIS, DIFDEN, times)  -11   11    F  2.96D+00  2.96D+00
      K-S energy, electrons, error :    -15.655701415990  25.9999946201   -5.38D-06
@ 11    -154.963188766        5.55456D-06   -7.04D-11    8

@ *** DIIS converged in  11 iterations !
@     Converged SCF energy, gradient:   -154.963188766243    5.55D-06
    - total time used in SIRFCK :              0.00 seconds


 *** SCF orbital energy analysis ***

 Only the 20 lowest virtual orbital energies printed in each symmetry.

 Number of electrons :   26
 Orbital occupations :   13

 Sym       Kohn-Sham orbital energies

1 A     -19.19770435   -10.29872998   -10.25024310    -1.08903916    -0.82509642
         -0.69544812    -0.56523902    -0.51937813    -0.49566524    -0.44465920
         -0.43111653    -0.38107965    -0.32668873     0.09790379     0.13614432
          0.15516951     0.17177327     0.18373513     0.20510277     0.26454487
          0.29043499     0.47268073     0.49163405     0.52953801     0.56226760
          0.60186681     0.63736405     0.67602616     0.71240261     0.72037791
          0.72193264     0.72839490     0.75943315

    E(LUMO) :     0.09790379 au (symmetry 1)
  - E(HOMO) :    -0.32668873 au (symmetry 1)
  ------------------------------------------
    gap     :     0.42459251 au

 --- Writing SIRIFC interface file

 CPU and wall time for SCF :      50.096      50.269


                       .-----------------------------------.
                       | --- Final results from SIRIUS --- |
                       `-----------------------------------'


@    Spin multiplicity:           1
@    Spatial symmetry:            1 ( irrep  A   in C1  )
@    Total charge of molecule:    0

@    Final DFT energy:           -154.963188766243                 
@    Nuclear repulsion:            82.024065349357
@    Electronic energy:          -236.987254115600

@    Final gradient norm:           0.000005554555

 
     Date and time (Linux)  : Tue Dec 14 17:36:45 2021
     Host name              : node664                                 

File label for MO orbitals:  14Dec21   FOCKDIIS

 (Only coefficients > 0.0100 are printed.)

 Molecular orbitals for symmetry species 1  (A  )
 ------------------------------------------------

    Orbital         4        5        6        7        8        9       10
   1 C   :1s     0.0047   0.0205  -0.0100  -0.0000  -0.0024  -0.0015   0.0008
   2 C   :1s    -0.0685  -0.6180   0.4293  -0.0724  -0.0088   0.0405   0.0291
   3 C   :1s     0.0095   0.1946  -0.1444   0.0213   0.0243  -0.0183   0.0050
   4 C   :2px   -0.0405  -0.0878  -0.1731   0.1208  -0.0112  -0.4096   0.2923
   5 C   :2py   -0.0098   0.0093   0.0138  -0.1860  -0.1252  -0.3034  -0.5135
   6 C   :2pz    0.0077  -0.0039  -0.0231  -0.1065   0.3810  -0.0382  -0.0121
   7 C   :2px    0.0033   0.0308   0.0304  -0.0238   0.0133   0.0786  -0.0465
   8 C   :2py   -0.0032   0.0035   0.0040   0.0480   0.0323   0.0447   0.1040
   9 C   :2pz   -0.0021  -0.0027   0.0022   0.0260  -0.0832   0.0072  -0.0144
  10 C   :3d2-  -0.0020   0.0018   0.0010  -0.0077  -0.0005   0.0017   0.0127
  11 C   :3d1-  -0.0008  -0.0002  -0.0012  -0.0031  -0.0036  -0.0052  -0.0127
  14 C   :3d2+  -0.0063  -0.0092  -0.0104   0.0053  -0.0038  -0.0112   0.0069
  15 C   :1s     0.0105   0.0136   0.0031  -0.0016  -0.0006  -0.0025   0.0010
  16 C   :1s    -0.3047  -0.4638  -0.5429   0.1252  -0.0178  -0.1408  -0.0033
  17 C   :1s     0.1260   0.1067   0.1884  -0.0521  -0.0245   0.0404   0.0229
  18 C   :2px   -0.0400   0.1530  -0.1948  -0.0626   0.0137   0.4076  -0.3344
  19 C   :2py   -0.1348   0.0562   0.0223  -0.4378  -0.1672  -0.1276   0.1450
  20 C   :2pz    0.0875  -0.0432  -0.0534  -0.1625   0.4703  -0.1223  -0.0531
  21 C   :2px    0.0138  -0.0209   0.0378   0.0027   0.0104  -0.0752   0.0700
  22 C   :2py    0.0506  -0.0170  -0.0025   0.0831   0.0335   0.0489  -0.0274
  23 C   :2pz   -0.0222   0.0161   0.0104   0.0274  -0.0893   0.0319   0.0212
  24 C   :3d2-  -0.0106   0.0009  -0.0066  -0.0135  -0.0030   0.0213   0.0201
  25 C   :3d1-   0.0222  -0.0036  -0.0012   0.0083   0.0124   0.0034  -0.0085
  26 C   :3d0    0.0017   0.0085  -0.0018   0.0148   0.0072  -0.0045  -0.0124
  28 C   :3d2+   0.0112  -0.0145   0.0115   0.0095   0.0090  -0.0049  -0.0028
  30 O   :1s    -0.8147   0.2571   0.1338  -0.1523   0.0928   0.1443   0.0947
  31 O   :1s     0.0853  -0.0160  -0.0267  -0.0424   0.0386   0.0412   0.0355
  32 O   :2px    0.0927   0.0200  -0.0381  -0.0287   0.1496   0.3682  -0.1264
  33 O   :2py    0.1190   0.0604   0.1837   0.0401   0.3422  -0.1125   0.0860
  34 O   :2pz    0.0486  -0.1163  -0.2647  -0.5105  -0.1931   0.1658   0.2247
  35 O   :2px   -0.0324   0.0042   0.0161   0.0099  -0.0020  -0.0087   0.0042
  36 O   :2py   -0.0283  -0.0003  -0.0131  -0.0278  -0.0279   0.0159   0.0141
  37 O   :2pz   -0.0389   0.0320   0.0544   0.0817   0.0406  -0.0341  -0.0205
  40 O   :3d0   -0.0015   0.0039   0.0054   0.0036   0.0114  -0.0016  -0.0032
  43 H   :1s    -0.0136  -0.2265   0.2174   0.0104   0.2515   0.3700   0.3309
  44 H   :1s     0.0022   0.0982  -0.0763  -0.0044  -0.0662  -0.0992  -0.0652
  45 H   :2px   -0.0013  -0.0072   0.0025   0.0016   0.0045   0.0006   0.0110
  46 H   :2py   -0.0013  -0.0151   0.0121  -0.0034   0.0076   0.0084   0.0005
  48 H   :1s    -0.0193  -0.2187   0.2501   0.0185  -0.3135   0.1898  -0.0919
  49 H   :1s     0.0095   0.0880  -0.0931   0.0007   0.0809  -0.0583   0.0102
  51 H   :2py   -0.0004  -0.0001  -0.0000  -0.0036  -0.0032  -0.0064  -0.0122
  52 H   :2pz   -0.0016  -0.0164   0.0153  -0.0014  -0.0072   0.0089  -0.0039
  53 H   :1s    -0.0151  -0.2172   0.2278  -0.2342   0.0643  -0.0842  -0.5150
  54 H   :1s     0.0075   0.0926  -0.0869   0.0680  -0.0135   0.0292   0.1256
  56 H   :2py    0.0013   0.0145  -0.0132   0.0075  -0.0061  -0.0031   0.0079
  57 H   :2pz    0.0012   0.0081  -0.0071   0.0047   0.0061   0.0007   0.0105
  58 H   :1s    -0.0688  -0.1589  -0.2690   0.3887  -0.0744   0.1987  -0.2155
  59 H   :1s     0.0331   0.0680   0.1013  -0.1262   0.0250  -0.0368   0.0448
  61 H   :2py   -0.0083  -0.0089  -0.0132   0.0096  -0.0044   0.0053  -0.0036
  63 H   :1s    -0.0657  -0.1677  -0.3044  -0.0638   0.3772  -0.0541  -0.1810
  64 H   :1s     0.0267   0.0686   0.1175   0.0252  -0.1145   0.0171   0.0390
  67 H   :2pz    0.0074   0.0118   0.0177   0.0003  -0.0102  -0.0010   0.0065
  68 H   :1s    -0.3007   0.1696   0.2776   0.4059   0.1768  -0.2197  -0.1431
  69 H   :1s     0.1392  -0.0682  -0.1012  -0.1306  -0.0347   0.0733   0.0301
  70 H   :2px   -0.0104   0.0067   0.0063   0.0098   0.0116   0.0061  -0.0079
  71 H   :2py    0.0028   0.0006   0.0031  -0.0028   0.0130  -0.0030   0.0023
  72 H   :2pz   -0.0333   0.0143   0.0189   0.0199   0.0061  -0.0121  -0.0023

    Orbital        11       12       13       14       15       16       17
   1 C   :1s     0.0019   0.0007  -0.0012  -0.0356   0.0320   0.0505   0.0075
   2 C   :1s     0.0188  -0.0653  -0.1321   0.1332  -0.1263  -0.1802  -0.0210
   3 C   :1s    -0.0206  -0.0384  -0.0724   0.9164  -1.0495  -1.5137  -0.2825
   4 C   :2px   -0.0090  -0.2313  -0.2915  -0.1782   0.1171   0.0781   0.0117
   5 C   :2py   -0.0021  -0.1865  -0.0364  -0.0182   0.0398  -0.1180   0.2437
   6 C   :2pz    0.5159  -0.0871   0.0631  -0.1013  -0.2001   0.0940   0.2356
   7 C   :2px   -0.0164   0.0261   0.0510  -0.2894   0.1502   0.0056  -0.0287
   8 C   :2py    0.0064   0.0808   0.0425   0.0476   0.0332  -0.1564   0.3622
   9 C   :2pz   -0.0932   0.0468  -0.0753  -0.1514  -0.2219   0.1555   0.3119
  10 C   :3d2-   0.0011   0.0141  -0.0023  -0.0073  -0.0088  -0.0083  -0.0031
  12 C   :3d0   -0.0124   0.0070  -0.0005   0.0025   0.0073  -0.0062  -0.0022
  13 C   :3d1+  -0.0187   0.0112  -0.0061   0.0074   0.0067   0.0033   0.0149
  15 C   :1s     0.0005   0.0019  -0.0012  -0.0340   0.0119  -0.0435   0.0024
  16 C   :1s     0.0039   0.0306  -0.0172   0.0430  -0.1963   0.1594  -0.0735
  17 C   :1s     0.0208  -0.0324  -0.0170   0.8916  -0.6428   1.4096  -0.1376
  18 C   :2px    0.0013   0.2389   0.2373   0.0590  -0.1871   0.0170  -0.0974
  19 C   :2py    0.0860   0.3045  -0.1382  -0.2100  -0.0625  -0.2493   0.1248
  20 C   :2pz   -0.3253   0.2414  -0.1023   0.0378  -0.1433   0.1033   0.3770
  21 C   :2px   -0.0213  -0.0898  -0.0925   0.0821  -0.2723  -0.0006  -0.1573
  22 C   :2py   -0.0326  -0.1369   0.0199  -0.1635   0.0326  -0.3369   0.2213
  23 C   :2pz    0.0616  -0.0855   0.0762  -0.0344  -0.3505   0.1271   0.5523
  24 C   :3d2-   0.0029   0.0046  -0.0179  -0.0012   0.0031   0.0068  -0.0040
  25 C   :3d1-  -0.0133  -0.0208   0.0054  -0.0091  -0.0135   0.0008  -0.0107
  26 C   :3d0   -0.0017   0.0241  -0.0049  -0.0015  -0.0013   0.0049   0.0004
  27 C   :3d1+  -0.0272   0.0092   0.0095  -0.0010  -0.0030  -0.0059  -0.0100
  28 C   :3d2+  -0.0053  -0.0028  -0.0308  -0.0037  -0.0064  -0.0058  -0.0007
  29 O   :1s     0.0024   0.0033  -0.0028  -0.0132  -0.0160  -0.0026  -0.0131
  30 O   :1s    -0.0798  -0.2011  -0.0076   0.1608   0.1401   0.0599   0.1215
  31 O   :1s    -0.0380  -0.0940   0.0371   0.3720   0.4103   0.1100   0.3690
  32 O   :2px   -0.1160  -0.3681  -0.6887  -0.1430  -0.0420   0.0246  -0.0555
  33 O   :2py   -0.3987  -0.4208   0.4028   0.0036  -0.0978  -0.0451  -0.0890
  34 O   :2pz   -0.0594  -0.2451   0.2527  -0.2364  -0.1849  -0.0014  -0.1124
  35 O   :2px    0.0058  -0.0048  -0.0474  -0.0555   0.0004  -0.0107  -0.0244
  36 O   :2py    0.0065  -0.0220   0.0165   0.0598   0.0028   0.0081  -0.0769
  37 O   :2pz   -0.0114   0.0303   0.0187  -0.1540  -0.1068   0.0003  -0.1217
  42 O   :3d2+  -0.0059  -0.0014   0.0102   0.0002   0.0026  -0.0028   0.0029
  43 H   :1s     0.2731   0.1874   0.1371  -0.0854  -0.0556  -0.0566  -0.0704
  44 H   :1s    -0.0579  -0.0213   0.0276  -0.3891   0.8488   0.1851   0.3726
  48 H   :1s    -0.5029   0.1681  -0.0395  -0.0031   0.0374   0.0671   0.1308
  49 H   :1s     0.1040   0.0191   0.0042  -0.7409  -0.0521   0.9997   0.8914
  53 H   :1s     0.2483  -0.1858   0.0619  -0.0047   0.0838   0.0658  -0.0604
  54 H   :1s    -0.0667  -0.0068   0.0488  -0.3356   0.6516   0.8480  -0.9732
  58 H   :1s     0.0780  -0.3119   0.3430  -0.0334  -0.0430  -0.0761   0.0935
  59 H   :1s    -0.0150   0.0222  -0.0370  -0.6268   0.2170  -1.0360   1.2650
  60 H   :2px   -0.0012   0.0116   0.0001   0.0033  -0.0046  -0.0036  -0.0019
  63 H   :1s    -0.3092   0.3934  -0.0295   0.0279   0.0949  -0.0808  -0.0977
  64 H   :1s     0.0662  -0.0550  -0.0098  -0.2737   1.0738  -0.8512  -0.9166
  68 H   :1s     0.0254   0.3122  -0.0047  -0.1303  -0.1695  -0.0264  -0.0907
  69 H   :1s    -0.0435  -0.1119  -0.0004  -0.7524  -0.7906  -0.0447  -0.5042
  70 H   :2px   -0.0012  -0.0049  -0.0252  -0.0027  -0.0050  -0.0029  -0.0044
  71 H   :2py   -0.0145  -0.0122   0.0140   0.0013  -0.0103   0.0011  -0.0052
  72 H   :2pz    0.0020   0.0112   0.0080  -0.0014  -0.0023  -0.0006  -0.0088

    Orbital        18       19       20       21       22       23
   1 C   :1s    -0.0085   0.0043  -0.0353   0.0520  -0.0045   0.0313
   2 C   :1s     0.0404  -0.0104  -0.0155  -0.0083  -0.0179   0.1936
   3 C   :1s     0.2219  -0.1017   0.7436  -1.4578  -0.0316   0.5689
   4 C   :2px   -0.0520   0.0231  -0.0199  -0.4257  -0.0304   0.5961
   5 C   :2py   -0.4183  -0.2110   0.0079   0.0663   0.1683  -0.2322
   6 C   :2pz    0.2541  -0.3383  -0.0701  -0.0716   0.2352   0.1516
   7 C   :2px   -0.0638   0.0013   0.5041  -1.8563   0.0840  -0.7973
   8 C   :2py   -0.9023  -0.5669   0.4507  -0.0471  -0.5198   0.7433
   9 C   :2pz    0.5554  -0.8796  -0.3848  -0.0048  -0.6895  -0.5193
  10 C   :3d2-  -0.0038   0.0072  -0.0295  -0.0107  -0.0502   0.0148
  11 C   :3d1-   0.0008   0.0009  -0.0026   0.0093   0.0647  -0.0502
  12 C   :3d0    0.0019  -0.0018   0.0013  -0.0059  -0.0817  -0.0804
  13 C   :3d1+   0.0040   0.0094   0.0092   0.0026  -0.0863  -0.0229
  14 C   :3d2+  -0.0058  -0.0015  -0.0080   0.0180  -0.0575   0.0557
  15 C   :1s     0.0077   0.0005   0.0326  -0.0363  -0.0109   0.0542
  16 C   :1s    -0.1659   0.0305  -0.2201   0.0901  -0.0441   0.1887
  17 C   :1s    -0.5363   0.0629  -1.2034   1.4868   0.0590  -0.1301
  18 C   :2px   -0.0839   0.0132  -0.0034  -0.5720   0.0694  -0.6419
  19 C   :2py   -0.0361   0.2077  -0.4144   0.0211  -0.0291   0.0582
  20 C   :2pz    0.0349   0.3394   0.2068  -0.0095  -0.0344  -0.0710
  21 C   :2px   -0.2115   0.0237   0.0685  -1.6999  -0.0816   1.3802
  22 C   :2py    0.3049   0.4711  -1.1255   0.0196   0.1111  -0.6396
  23 C   :2pz   -0.1867   0.8174   0.6095  -0.0550  -0.0858   0.4558
  24 C   :3d2-   0.0172   0.0088   0.0150   0.0076   0.0441  -0.0115
  25 C   :3d1-  -0.0062   0.0001  -0.0219   0.0020  -0.0300  -0.0449
  26 C   :3d0   -0.0010   0.0005  -0.0080   0.0057   0.0606  -0.0517
  27 C   :3d1+  -0.0119   0.0117  -0.0012   0.0025   0.0877   0.0177
  28 C   :3d2+  -0.0057   0.0031  -0.0144  -0.0054   0.0278   0.0576
  29 O   :1s     0.0038   0.0007  -0.0305   0.0073   0.0059  -0.0193
  30 O   :1s     0.1084  -0.0408   0.1246   0.0411   0.0402  -0.0497
  31 O   :1s     0.0455  -0.0573   0.7313  -0.0774  -0.0308   0.2546
  32 O   :2px   -0.1087   0.0115  -0.0998   0.0997   0.0037  -0.0471
  33 O   :2py   -0.1048  -0.0624  -0.3865  -0.0698   0.0928  -0.0174
  34 O   :2pz    0.0188  -0.0670   0.3514   0.1363   0.0456  -0.0080
  35 O   :2px   -0.0095   0.0063  -0.1555   0.1733   0.0262  -0.2162
  36 O   :2py   -0.0184  -0.0413  -0.3741  -0.0753   0.0068  -0.0147
  37 O   :2pz   -0.0117  -0.0871   0.3387   0.0983   0.0056  -0.0312
  38 O   :3d2-  -0.0003  -0.0028   0.0013   0.0102   0.0042  -0.0005
  42 O   :3d2+  -0.0002   0.0015   0.0006  -0.0025  -0.0020   0.0100
  43 H   :1s    -0.1925  -0.0015  -0.0914  -0.2291  -0.0202   0.2235
  44 H   :1s    -1.9390   0.0042   0.3212  -0.1108   0.0062  -0.0897
  45 H   :2px   -0.0029  -0.0006   0.0287  -0.0084  -0.0029   0.0088
  46 H   :2py   -0.0079  -0.0053   0.0003   0.0065  -0.0211  -0.0040
  47 H   :2pz    0.0041  -0.0070   0.0005  -0.0039  -0.0367  -0.0027
  48 H   :1s     0.0888  -0.1100   0.0508  -0.1245  -0.9881  -0.6537
  49 H   :1s     0.7596  -1.2382  -0.5524  -0.5012   0.8258   0.3634
  50 H   :2px    0.0019  -0.0062  -0.0071  -0.0061   0.0338  -0.0199
  51 H   :2py   -0.0051  -0.0025   0.0037   0.0015  -0.0249   0.0175
  52 H   :2pz    0.0042  -0.0048  -0.0019   0.0049   0.0266   0.0100
  53 H   :1s     0.0825   0.1196   0.1256  -0.0837   1.0751  -0.4766
  54 H   :1s     0.6731   1.3965  -0.1617  -0.3347  -0.8203   0.2276
  55 H   :2px    0.0028   0.0079  -0.0163  -0.0114  -0.0285  -0.0241
  56 H   :2py   -0.0042  -0.0030  -0.0001  -0.0033   0.0328   0.0078
  57 H   :2pz    0.0015  -0.0057  -0.0006  -0.0029  -0.0011  -0.0190
  58 H   :1s     0.0249   0.0057  -0.1735   0.0490  -0.5865  -0.4520
  59 H   :1s     0.5178   1.1824  -0.1508   0.3744   0.5328   0.1922
  60 H   :2px   -0.0049  -0.0081  -0.0055  -0.0129  -0.0650   0.0244
  61 H   :2py   -0.0009   0.0057  -0.0063  -0.0025   0.0295  -0.0032
  62 H   :2pz    0.0031   0.0022   0.0153  -0.0071   0.0015   0.0192
  63 H   :1s     0.0312  -0.0218  -0.1406   0.1163   0.6652  -0.3414
  64 H   :1s     0.4670  -1.2979   0.0281   0.4124  -0.5567   0.0431
  65 H   :2px   -0.0057   0.0074  -0.0004  -0.0102   0.0650   0.0364
  66 H   :2py   -0.0023   0.0018  -0.0166   0.0035  -0.0101  -0.0254
  67 H   :2pz   -0.0011   0.0054  -0.0030   0.0061   0.0283   0.0045
  68 H   :1s    -0.0111   0.0487   0.0408   0.0385   0.0525  -0.1739
  69 H   :1s    -0.2084   0.0628   0.7497   0.3818  -0.1985   0.1634
  70 H   :2px    0.0010   0.0088  -0.0112   0.0188  -0.0253  -0.0121
  71 H   :2py   -0.0085   0.0022  -0.0050  -0.0051  -0.0262   0.0113

  Total CPU  time used in SIRIUS :  50.13 seconds
  Total wall time used in SIRIUS :  50.76 seconds

 
     Date and time (Linux)  : Tue Dec 14 17:36:45 2021
     Host name              : node664                                 


                     .---------------------------------------.
                     | End of Wave Function Section (SIRIUS) |
                     `---------------------------------------'

  Total CPU  time used in DALTON:  50.22 seconds
  Total wall time used in DALTON:  50.90 seconds

 
     Date and time (Linux)  : Tue Dec 14 17:36:45 2021
     Host name              : node664                                 
